# vtk DataFile Version 3.0
VTK datafile generated by Trushant
ASCII
DATASET UNSTRUCTURED_GRID
POINTS 121 double
  0.0000000000000000E+00	  0.0000000000000000E+00	  0.0000000000000000E+00
  0.0000000000000000E+00	  1.0000000000000001E-01	  0.0000000000000000E+00
  0.0000000000000000E+00	  2.0000000000000001E-01	  0.0000000000000000E+00
  0.0000000000000000E+00	  3.0000000000000004E-01	  0.0000000000000000E+00
  0.0000000000000000E+00	  4.0000000000000002E-01	  0.0000000000000000E+00
  0.0000000000000000E+00	  5.0000000000000000E-01	  0.0000000000000000E+00
  0.0000000000000000E+00	  6.0000000000000009E-01	  0.0000000000000000E+00
  0.0000000000000000E+00	  7.0000000000000007E-01	  0.0000000000000000E+00
  0.0000000000000000E+00	  8.0000000000000004E-01	  0.0000000000000000E+00
  0.0000000000000000E+00	  9.0000000000000002E-01	  0.0000000000000000E+00
  0.0000000000000000E+00	  1.0000000000000000E+00	  0.0000000000000000E+00
  1.0000000000000001E-01	  0.0000000000000000E+00	  0.0000000000000000E+00
  1.0000000000000001E-01	  1.0000000000000001E-01	  0.0000000000000000E+00
  1.0000000000000001E-01	  2.0000000000000001E-01	  0.0000000000000000E+00
  1.0000000000000001E-01	  3.0000000000000004E-01	  0.0000000000000000E+00
  1.0000000000000001E-01	  4.0000000000000002E-01	  0.0000000000000000E+00
  1.0000000000000001E-01	  5.0000000000000000E-01	  0.0000000000000000E+00
  1.0000000000000001E-01	  6.0000000000000009E-01	  0.0000000000000000E+00
  1.0000000000000001E-01	  7.0000000000000007E-01	  0.0000000000000000E+00
  1.0000000000000001E-01	  8.0000000000000004E-01	  0.0000000000000000E+00
  1.0000000000000001E-01	  9.0000000000000002E-01	  0.0000000000000000E+00
  1.0000000000000001E-01	  1.0000000000000000E+00	  0.0000000000000000E+00
  2.0000000000000001E-01	  0.0000000000000000E+00	  0.0000000000000000E+00
  2.0000000000000001E-01	  1.0000000000000001E-01	  0.0000000000000000E+00
  2.0000000000000001E-01	  2.0000000000000001E-01	  0.0000000000000000E+00
  2.0000000000000001E-01	  3.0000000000000004E-01	  0.0000000000000000E+00
  2.0000000000000001E-01	  4.0000000000000002E-01	  0.0000000000000000E+00
  2.0000000000000001E-01	  5.0000000000000000E-01	  0.0000000000000000E+00
  2.0000000000000001E-01	  6.0000000000000009E-01	  0.0000000000000000E+00
  2.0000000000000001E-01	  7.0000000000000007E-01	  0.0000000000000000E+00
  2.0000000000000001E-01	  8.0000000000000004E-01	  0.0000000000000000E+00
  2.0000000000000001E-01	  9.0000000000000002E-01	  0.0000000000000000E+00
  2.0000000000000001E-01	  1.0000000000000000E+00	  0.0000000000000000E+00
  3.0000000000000004E-01	  0.0000000000000000E+00	  0.0000000000000000E+00
  3.0000000000000004E-01	  1.0000000000000001E-01	  0.0000000000000000E+00
  3.0000000000000004E-01	  2.0000000000000001E-01	  0.0000000000000000E+00
  3.0000000000000004E-01	  3.0000000000000004E-01	  0.0000000000000000E+00
  3.0000000000000004E-01	  4.0000000000000002E-01	  0.0000000000000000E+00
  3.0000000000000004E-01	  5.0000000000000000E-01	  0.0000000000000000E+00
  3.0000000000000004E-01	  6.0000000000000009E-01	  0.0000000000000000E+00
  3.0000000000000004E-01	  7.0000000000000007E-01	  0.0000000000000000E+00
  3.0000000000000004E-01	  8.0000000000000004E-01	  0.0000000000000000E+00
  3.0000000000000004E-01	  9.0000000000000002E-01	  0.0000000000000000E+00
  3.0000000000000004E-01	  1.0000000000000000E+00	  0.0000000000000000E+00
  4.0000000000000002E-01	  0.0000000000000000E+00	  0.0000000000000000E+00
  4.0000000000000002E-01	  1.0000000000000001E-01	  0.0000000000000000E+00
  4.0000000000000002E-01	  2.0000000000000001E-01	  0.0000000000000000E+00
  4.0000000000000002E-01	  3.0000000000000004E-01	  0.0000000000000000E+00
  4.0000000000000002E-01	  4.0000000000000002E-01	  0.0000000000000000E+00
  4.0000000000000002E-01	  5.0000000000000000E-01	  0.0000000000000000E+00
  4.0000000000000002E-01	  6.0000000000000009E-01	  0.0000000000000000E+00
  4.0000000000000002E-01	  7.0000000000000007E-01	  0.0000000000000000E+00
  4.0000000000000002E-01	  8.0000000000000004E-01	  0.0000000000000000E+00
  4.0000000000000002E-01	  9.0000000000000002E-01	  0.0000000000000000E+00
  4.0000000000000002E-01	  1.0000000000000000E+00	  0.0000000000000000E+00
  5.0000000000000000E-01	  0.0000000000000000E+00	  0.0000000000000000E+00
  5.0000000000000000E-01	  1.0000000000000001E-01	  0.0000000000000000E+00
  5.0000000000000000E-01	  2.0000000000000001E-01	  0.0000000000000000E+00
  5.0000000000000000E-01	  3.0000000000000004E-01	  0.0000000000000000E+00
  5.0000000000000000E-01	  4.0000000000000002E-01	  0.0000000000000000E+00
  5.0000000000000000E-01	  5.0000000000000000E-01	  0.0000000000000000E+00
  5.0000000000000000E-01	  6.0000000000000009E-01	  0.0000000000000000E+00
  5.0000000000000000E-01	  7.0000000000000007E-01	  0.0000000000000000E+00
  5.0000000000000000E-01	  8.0000000000000004E-01	  0.0000000000000000E+00
  5.0000000000000000E-01	  9.0000000000000002E-01	  0.0000000000000000E+00
  5.0000000000000000E-01	  1.0000000000000000E+00	  0.0000000000000000E+00
  6.0000000000000009E-01	  0.0000000000000000E+00	  0.0000000000000000E+00
  6.0000000000000009E-01	  1.0000000000000001E-01	  0.0000000000000000E+00
  6.0000000000000009E-01	  2.0000000000000001E-01	  0.0000000000000000E+00
  6.0000000000000009E-01	  3.0000000000000004E-01	  0.0000000000000000E+00
  6.0000000000000009E-01	  4.0000000000000002E-01	  0.0000000000000000E+00
  6.0000000000000009E-01	  5.0000000000000000E-01	  0.0000000000000000E+00
  6.0000000000000009E-01	  6.0000000000000009E-01	  0.0000000000000000E+00
  6.0000000000000009E-01	  7.0000000000000007E-01	  0.0000000000000000E+00
  6.0000000000000009E-01	  8.0000000000000004E-01	  0.0000000000000000E+00
  6.0000000000000009E-01	  9.0000000000000002E-01	  0.0000000000000000E+00
  6.0000000000000009E-01	  1.0000000000000000E+00	  0.0000000000000000E+00
  7.0000000000000007E-01	  0.0000000000000000E+00	  0.0000000000000000E+00
  7.0000000000000007E-01	  1.0000000000000001E-01	  0.0000000000000000E+00
  7.0000000000000007E-01	  2.0000000000000001E-01	  0.0000000000000000E+00
  7.0000000000000007E-01	  3.0000000000000004E-01	  0.0000000000000000E+00
  7.0000000000000007E-01	  4.0000000000000002E-01	  0.0000000000000000E+00
  7.0000000000000007E-01	  5.0000000000000000E-01	  0.0000000000000000E+00
  7.0000000000000007E-01	  6.0000000000000009E-01	  0.0000000000000000E+00
  7.0000000000000007E-01	  7.0000000000000007E-01	  0.0000000000000000E+00
  7.0000000000000007E-01	  8.0000000000000004E-01	  0.0000000000000000E+00
  7.0000000000000007E-01	  9.0000000000000002E-01	  0.0000000000000000E+00
  7.0000000000000007E-01	  1.0000000000000000E+00	  0.0000000000000000E+00
  8.0000000000000004E-01	  0.0000000000000000E+00	  0.0000000000000000E+00
  8.0000000000000004E-01	  1.0000000000000001E-01	  0.0000000000000000E+00
  8.0000000000000004E-01	  2.0000000000000001E-01	  0.0000000000000000E+00
  8.0000000000000004E-01	  3.0000000000000004E-01	  0.0000000000000000E+00
  8.0000000000000004E-01	  4.0000000000000002E-01	  0.0000000000000000E+00
  8.0000000000000004E-01	  5.0000000000000000E-01	  0.0000000000000000E+00
  8.0000000000000004E-01	  6.0000000000000009E-01	  0.0000000000000000E+00
  8.0000000000000004E-01	  7.0000000000000007E-01	  0.0000000000000000E+00
  8.0000000000000004E-01	  8.0000000000000004E-01	  0.0000000000000000E+00
  8.0000000000000004E-01	  9.0000000000000002E-01	  0.0000000000000000E+00
  8.0000000000000004E-01	  1.0000000000000000E+00	  0.0000000000000000E+00
  9.0000000000000002E-01	  0.0000000000000000E+00	  0.0000000000000000E+00
  9.0000000000000002E-01	  1.0000000000000001E-01	  0.0000000000000000E+00
  9.0000000000000002E-01	  2.0000000000000001E-01	  0.0000000000000000E+00
  9.0000000000000002E-01	  3.0000000000000004E-01	  0.0000000000000000E+00
  9.0000000000000002E-01	  4.0000000000000002E-01	  0.0000000000000000E+00
  9.0000000000000002E-01	  5.0000000000000000E-01	  0.0000000000000000E+00
  9.0000000000000002E-01	  6.0000000000000009E-01	  0.0000000000000000E+00
  9.0000000000000002E-01	  7.0000000000000007E-01	  0.0000000000000000E+00
  9.0000000000000002E-01	  8.0000000000000004E-01	  0.0000000000000000E+00
  9.0000000000000002E-01	  9.0000000000000002E-01	  0.0000000000000000E+00
  9.0000000000000002E-01	  1.0000000000000000E+00	  0.0000000000000000E+00
  1.0000000000000000E+00	  0.0000000000000000E+00	  0.0000000000000000E+00
  1.0000000000000000E+00	  1.0000000000000001E-01	  0.0000000000000000E+00
  1.0000000000000000E+00	  2.0000000000000001E-01	  0.0000000000000000E+00
  1.0000000000000000E+00	  3.0000000000000004E-01	  0.0000000000000000E+00
  1.0000000000000000E+00	  4.0000000000000002E-01	  0.0000000000000000E+00
  1.0000000000000000E+00	  5.0000000000000000E-01	  0.0000000000000000E+00
  1.0000000000000000E+00	  6.0000000000000009E-01	  0.0000000000000000E+00
  1.0000000000000000E+00	  7.0000000000000007E-01	  0.0000000000000000E+00
  1.0000000000000000E+00	  8.0000000000000004E-01	  0.0000000000000000E+00
  1.0000000000000000E+00	  9.0000000000000002E-01	  0.0000000000000000E+00
  1.0000000000000000E+00	  1.0000000000000000E+00	  0.0000000000000000E+00
CELLS 100 500
4	0	1	12	11	
4	1	2	13	12	
4	2	3	14	13	
4	3	4	15	14	
4	4	5	16	15	
4	5	6	17	16	
4	6	7	18	17	
4	7	8	19	18	
4	8	9	20	19	
4	9	10	21	20	
4	11	12	23	22	
4	12	13	24	23	
4	13	14	25	24	
4	14	15	26	25	
4	15	16	27	26	
4	16	17	28	27	
4	17	18	29	28	
4	18	19	30	29	
4	19	20	31	30	
4	20	21	32	31	
4	22	23	34	33	
4	23	24	35	34	
4	24	25	36	35	
4	25	26	37	36	
4	26	27	38	37	
4	27	28	39	38	
4	28	29	40	39	
4	29	30	41	40	
4	30	31	42	41	
4	31	32	43	42	
4	33	34	45	44	
4	34	35	46	45	
4	35	36	47	46	
4	36	37	48	47	
4	37	38	49	48	
4	38	39	50	49	
4	39	40	51	50	
4	40	41	52	51	
4	41	42	53	52	
4	42	43	54	53	
4	44	45	56	55	
4	45	46	57	56	
4	46	47	58	57	
4	47	48	59	58	
4	48	49	60	59	
4	49	50	61	60	
4	50	51	62	61	
4	51	52	63	62	
4	52	53	64	63	
4	53	54	65	64	
4	55	56	67	66	
4	56	57	68	67	
4	57	58	69	68	
4	58	59	70	69	
4	59	60	71	70	
4	60	61	72	71	
4	61	62	73	72	
4	62	63	74	73	
4	63	64	75	74	
4	64	65	76	75	
4	66	67	78	77	
4	67	68	79	78	
4	68	69	80	79	
4	69	70	81	80	
4	70	71	82	81	
4	71	72	83	82	
4	72	73	84	83	
4	73	74	85	84	
4	74	75	86	85	
4	75	76	87	86	
4	77	78	89	88	
4	78	79	90	89	
4	79	80	91	90	
4	80	81	92	91	
4	81	82	93	92	
4	82	83	94	93	
4	83	84	95	94	
4	84	85	96	95	
4	85	86	97	96	
4	86	87	98	97	
4	88	89	100	99	
4	89	90	101	100	
4	90	91	102	101	
4	91	92	103	102	
4	92	93	104	103	
4	93	94	105	104	
4	94	95	106	105	
4	95	96	107	106	
4	96	97	108	107	
4	97	98	109	108	
4	99	100	111	110	
4	100	101	112	111	
4	101	102	113	112	
4	102	103	114	113	
4	103	104	115	114	
4	104	105	116	115	
4	105	106	117	116	
4	106	107	118	117	
4	107	108	119	118	
4	108	109	120	119	
CELL_TYPES 100
9
9
9
9
9
9
9
9
9
9
9
9
9
9
9
9
9
9
9
9
9
9
9
9
9
9
9
9
9
9
9
9
9
9
9
9
9
9
9
9
9
9
9
9
9
9
9
9
9
9
9
9
9
9
9
9
9
9
9
9
9
9
9
9
9
9
9
9
9
9
9
9
9
9
9
9
9
9
9
9
9
9
9
9
9
9
9
9
9
9
9
9
9
9
9
9
9
9
9
9
CELL_DATA 100
SCALARS Temperature double
LOOKUP_TABLE default
  3.9439463985717063E-03
  1.1831839197115860E-02
  1.8785114046016977E-02
  2.4515299137514289E-02
  2.8769797057676700E-02
  3.1166433816321136E-02
  3.1108350603630413E-02
  2.7711421132459824E-02
  1.9817495766072928E-02
  6.7144295894496957E-03
  1.1831839197115862E-02
  3.6430135547653279E-02
  5.7578431905796507E-02
  7.5021584596891372E-02
  8.8167252348966010E-02
  9.5954021434716485E-02
  9.6663898082384722E-02
  8.7631259302937567E-02
  6.4661628115117803E-02
  2.0469081773426715E-02
  1.8785114046016974E-02
  5.7578431905796486E-02
  9.0376893456235896E-02
  1.1692535502500023E-01
  1.3642360633949727E-01
  1.4731850152411186E-01
  1.4706196101796609E-01
  1.3178808990539931E-01
  9.5828675633245736E-02
  3.0969351169228616E-02
  2.4515299137514282E-02
  7.5021584596891330E-02
  1.1692535502500022E-01
  1.5017933575349482E-01
  1.7398331651100610E-01
  1.8653441735536269E-01
  1.8477735460608691E-01
  1.6413046370409770E-01
  1.1819563336684871E-01
  3.8548998449812279E-02
  2.8769797057676693E-02
  8.8167252348965997E-02
  1.3642360633949727E-01
  1.7398331651100615E-01
  2.0029590665996544E-01
  2.1355849684454170E-01
  2.1048257640495460E-01
  1.8606077698417425E-01
  1.3337439570995102E-01
  4.3580007725997502E-02
  3.1166433816321136E-02
  9.5954021434716472E-02
  1.4731850152411188E-01
  1.8653441735536283E-01
  2.1355849684454170E-01
  2.2682108702911802E-01
  2.2303367724931128E-01
  1.9695567216878895E-01
  1.4116116479570159E-01
  4.5976644484641969E-02
  3.1108350603630420E-02
  9.6663898082384750E-02
  1.4706196101796615E-01
  1.8477735460608702E-01
  2.1048257640495455E-01
  2.2303367724931125E-01
  2.1937537345867905E-01
  1.9426706969706359E-01
  1.3983794685234213E-01
  4.5142049915928434E-02
  2.7711421132459824E-02
  8.7631259302937553E-02
  1.3178808990539939E-01
  1.6413046370409781E-01
  1.8606077698417423E-01
  1.9695567216878884E-01
  1.9426706969706356E-01
  1.7319928635456286E-01
  1.2588150303038664E-01
  3.9895658255671457E-02
  1.9817495766072942E-02
  6.4661628115117858E-02
  9.5828675633245819E-02
  1.1819563336684882E-01
  1.3337439570995108E-01
  1.4116116479570165E-01
  1.3983794685234216E-01
  1.2588150303038670E-01
  9.2893120682582306E-02
  2.8454738342383788E-02
  6.7144295894496957E-03
  2.0469081773426712E-02
  3.0969351169228630E-02
  3.8548998449812286E-02
  4.3580007725997495E-02
  4.5976644484641949E-02
  4.5142049915928406E-02
  3.9895658255671443E-02
  2.8454738342383760E-02
  9.4849127803276877E-03
POINT_DATA 121
SCALARS Temperature double
LOOKUP_TABLE default
  3.9439463985717063E-03
  7.8878927978437846E-03
  1.5308476621566420E-02
  2.1650206591765635E-02
  2.6642548097595496E-02
  2.9968115436998916E-02
  3.1137392209975776E-02
  2.9409885868045119E-02
  2.3764458449266376E-02
  1.3265962677761312E-02
  6.7144295894496957E-03
  7.8878927978437846E-03
  1.6009440085114176E-02
  3.1156380174145657E-02
  4.3975107421554797E-02
  5.4118483285262094E-02
  6.1014376164420091E-02
  6.3723175984263192E-02
  6.0778732280353132E-02
  4.9955451079147041E-02
  2.7915658811016784E-02
  1.3591755681438207E-02
  1.5308476621566418E-02
  3.1156380174145657E-02
  6.0490973203870528E-02
  8.4975566245981002E-02
  1.0413444957758872E-01
  1.1696584541182292E-01
  1.2174959551479478E-01
  1.1578630207717193E-01
  9.4977413239175093E-02
  5.2982184172754722E-02
  2.5719216471327667E-02
  2.1650206591765624E-02
  4.3975107421554756E-02
  8.4975566245980974E-02
  1.1860173481493279E-01
  1.4437790340724960E-01
  1.6106496043249446E-01
  1.6642305862588189E-01
  1.5693946730838748E-01
  1.2748571565239786E-01
  7.0885664654783825E-02
  3.4759174809520448E-02
  2.6642548097595486E-02
  5.4118483285262073E-02
  1.0413444957758870E-01
  1.4437790340724962E-01
  1.7461046885886816E-01
  1.9359303434271899E-01
  1.9883821130273646E-01
  1.8636279292482835E-01
  1.5044031744126790E-01
  8.3424758813152367E-02
  4.1064503087904894E-02
  2.9968115436998916E-02
  6.1014376164420063E-02
  1.1696584541182289E-01
  1.6106496043249452E-01
  1.9359303434271904E-01
  2.1355849684454173E-01
  2.1847395938198139E-01
  2.0413317570180728E-01
  1.6438800241465396E-01
  9.1023053179072999E-02
  4.4778326105319739E-02
  3.1137392209975776E-02
  6.3723175984263178E-02
  1.2174959551479481E-01
  1.6642305862588194E-01
  1.9883821130273652E-01
  2.1847395938198139E-01
  2.2306595374660490E-01
  2.0840794814346073E-01
  1.6805546337847407E-01
  9.3029451512153541E-02
  4.5559347200285205E-02
  2.9409885868045122E-02
  6.0778732280353145E-02
  1.1578630207717196E-01
  1.5693946730838756E-01
  1.8636279292482838E-01
  2.0413317570180722E-01
  2.0840794814346067E-01
  1.9527719980184227E-01
  1.5829645148358878E-01
  8.7689289513582180E-02
  4.2518854085799945E-02
  2.3764458449266383E-02
  4.9955451079147041E-02
  9.4977413239175149E-02
  1.2748571565239797E-01
  1.5044031744126798E-01
  1.6438800241465396E-01
  1.6805546337847407E-01
  1.5829645148358884E-01
  1.2946385327447965E-01
  7.1781255077756054E-02
  3.4175198299027626E-02
  1.3265962677761320E-02
  2.7915658811016805E-02
  5.2982184172754763E-02
  7.0885664654783909E-02
  8.3424758813152450E-02
  9.1023053179073068E-02
  9.3029451512153569E-02
  8.7689289513582208E-02
  7.1781255077756068E-02
  3.9821877536919396E-02
  1.8969825561355742E-02
  6.7144295894496957E-03
  1.3591755681438202E-02
  2.5719216471327671E-02
  3.4759174809520461E-02
  4.1064503087904887E-02
  4.4778326105319725E-02
  4.5559347200285177E-02
  4.2518854085799918E-02
  3.4175198299027598E-02
  1.8969825561355725E-02
  9.4849127803276877E-03
