# vtk DataFile Version 3.0
VTK datafile generated by Trushant
ASCII
DATASET UNSTRUCTURED_GRID
POINTS 121 double
  0.0000000000000000E+00	  0.0000000000000000E+00	  0.0000000000000000E+00
  0.0000000000000000E+00	  1.0000000000000001E-01	  0.0000000000000000E+00
  0.0000000000000000E+00	  2.0000000000000001E-01	  0.0000000000000000E+00
  0.0000000000000000E+00	  3.0000000000000004E-01	  0.0000000000000000E+00
  0.0000000000000000E+00	  4.0000000000000002E-01	  0.0000000000000000E+00
  0.0000000000000000E+00	  5.0000000000000000E-01	  0.0000000000000000E+00
  0.0000000000000000E+00	  6.0000000000000009E-01	  0.0000000000000000E+00
  0.0000000000000000E+00	  7.0000000000000007E-01	  0.0000000000000000E+00
  0.0000000000000000E+00	  8.0000000000000004E-01	  0.0000000000000000E+00
  0.0000000000000000E+00	  9.0000000000000002E-01	  0.0000000000000000E+00
  0.0000000000000000E+00	  1.0000000000000000E+00	  0.0000000000000000E+00
  1.0000000000000001E-01	  0.0000000000000000E+00	  0.0000000000000000E+00
  1.0000000000000001E-01	  1.0000000000000001E-01	  0.0000000000000000E+00
  1.0000000000000001E-01	  2.0000000000000001E-01	  0.0000000000000000E+00
  1.0000000000000001E-01	  3.0000000000000004E-01	  0.0000000000000000E+00
  1.0000000000000001E-01	  4.0000000000000002E-01	  0.0000000000000000E+00
  1.0000000000000001E-01	  5.0000000000000000E-01	  0.0000000000000000E+00
  1.0000000000000001E-01	  6.0000000000000009E-01	  0.0000000000000000E+00
  1.0000000000000001E-01	  7.0000000000000007E-01	  0.0000000000000000E+00
  1.0000000000000001E-01	  8.0000000000000004E-01	  0.0000000000000000E+00
  1.0000000000000001E-01	  9.0000000000000002E-01	  0.0000000000000000E+00
  1.0000000000000001E-01	  1.0000000000000000E+00	  0.0000000000000000E+00
  2.0000000000000001E-01	  0.0000000000000000E+00	  0.0000000000000000E+00
  2.0000000000000001E-01	  1.0000000000000001E-01	  0.0000000000000000E+00
  2.0000000000000001E-01	  2.0000000000000001E-01	  0.0000000000000000E+00
  2.0000000000000001E-01	  3.0000000000000004E-01	  0.0000000000000000E+00
  2.0000000000000001E-01	  4.0000000000000002E-01	  0.0000000000000000E+00
  2.0000000000000001E-01	  5.0000000000000000E-01	  0.0000000000000000E+00
  2.0000000000000001E-01	  6.0000000000000009E-01	  0.0000000000000000E+00
  2.0000000000000001E-01	  7.0000000000000007E-01	  0.0000000000000000E+00
  2.0000000000000001E-01	  8.0000000000000004E-01	  0.0000000000000000E+00
  2.0000000000000001E-01	  9.0000000000000002E-01	  0.0000000000000000E+00
  2.0000000000000001E-01	  1.0000000000000000E+00	  0.0000000000000000E+00
  3.0000000000000004E-01	  0.0000000000000000E+00	  0.0000000000000000E+00
  3.0000000000000004E-01	  1.0000000000000001E-01	  0.0000000000000000E+00
  3.0000000000000004E-01	  2.0000000000000001E-01	  0.0000000000000000E+00
  3.0000000000000004E-01	  3.0000000000000004E-01	  0.0000000000000000E+00
  3.0000000000000004E-01	  4.0000000000000002E-01	  0.0000000000000000E+00
  3.0000000000000004E-01	  5.0000000000000000E-01	  0.0000000000000000E+00
  3.0000000000000004E-01	  6.0000000000000009E-01	  0.0000000000000000E+00
  3.0000000000000004E-01	  7.0000000000000007E-01	  0.0000000000000000E+00
  3.0000000000000004E-01	  8.0000000000000004E-01	  0.0000000000000000E+00
  3.0000000000000004E-01	  9.0000000000000002E-01	  0.0000000000000000E+00
  3.0000000000000004E-01	  1.0000000000000000E+00	  0.0000000000000000E+00
  4.0000000000000002E-01	  0.0000000000000000E+00	  0.0000000000000000E+00
  4.0000000000000002E-01	  1.0000000000000001E-01	  0.0000000000000000E+00
  4.0000000000000002E-01	  2.0000000000000001E-01	  0.0000000000000000E+00
  4.0000000000000002E-01	  3.0000000000000004E-01	  0.0000000000000000E+00
  4.0000000000000002E-01	  4.0000000000000002E-01	  0.0000000000000000E+00
  4.0000000000000002E-01	  5.0000000000000000E-01	  0.0000000000000000E+00
  4.0000000000000002E-01	  6.0000000000000009E-01	  0.0000000000000000E+00
  4.0000000000000002E-01	  7.0000000000000007E-01	  0.0000000000000000E+00
  4.0000000000000002E-01	  8.0000000000000004E-01	  0.0000000000000000E+00
  4.0000000000000002E-01	  9.0000000000000002E-01	  0.0000000000000000E+00
  4.0000000000000002E-01	  1.0000000000000000E+00	  0.0000000000000000E+00
  5.0000000000000000E-01	  0.0000000000000000E+00	  0.0000000000000000E+00
  5.0000000000000000E-01	  1.0000000000000001E-01	  0.0000000000000000E+00
  5.0000000000000000E-01	  2.0000000000000001E-01	  0.0000000000000000E+00
  5.0000000000000000E-01	  3.0000000000000004E-01	  0.0000000000000000E+00
  5.0000000000000000E-01	  4.0000000000000002E-01	  0.0000000000000000E+00
  5.0000000000000000E-01	  5.0000000000000000E-01	  0.0000000000000000E+00
  5.0000000000000000E-01	  6.0000000000000009E-01	  0.0000000000000000E+00
  5.0000000000000000E-01	  7.0000000000000007E-01	  0.0000000000000000E+00
  5.0000000000000000E-01	  8.0000000000000004E-01	  0.0000000000000000E+00
  5.0000000000000000E-01	  9.0000000000000002E-01	  0.0000000000000000E+00
  5.0000000000000000E-01	  1.0000000000000000E+00	  0.0000000000000000E+00
  6.0000000000000009E-01	  0.0000000000000000E+00	  0.0000000000000000E+00
  6.0000000000000009E-01	  1.0000000000000001E-01	  0.0000000000000000E+00
  6.0000000000000009E-01	  2.0000000000000001E-01	  0.0000000000000000E+00
  6.0000000000000009E-01	  3.0000000000000004E-01	  0.0000000000000000E+00
  6.0000000000000009E-01	  4.0000000000000002E-01	  0.0000000000000000E+00
  6.0000000000000009E-01	  5.0000000000000000E-01	  0.0000000000000000E+00
  6.0000000000000009E-01	  6.0000000000000009E-01	  0.0000000000000000E+00
  6.0000000000000009E-01	  7.0000000000000007E-01	  0.0000000000000000E+00
  6.0000000000000009E-01	  8.0000000000000004E-01	  0.0000000000000000E+00
  6.0000000000000009E-01	  9.0000000000000002E-01	  0.0000000000000000E+00
  6.0000000000000009E-01	  1.0000000000000000E+00	  0.0000000000000000E+00
  7.0000000000000007E-01	  0.0000000000000000E+00	  0.0000000000000000E+00
  7.0000000000000007E-01	  1.0000000000000001E-01	  0.0000000000000000E+00
  7.0000000000000007E-01	  2.0000000000000001E-01	  0.0000000000000000E+00
  7.0000000000000007E-01	  3.0000000000000004E-01	  0.0000000000000000E+00
  7.0000000000000007E-01	  4.0000000000000002E-01	  0.0000000000000000E+00
  7.0000000000000007E-01	  5.0000000000000000E-01	  0.0000000000000000E+00
  7.0000000000000007E-01	  6.0000000000000009E-01	  0.0000000000000000E+00
  7.0000000000000007E-01	  7.0000000000000007E-01	  0.0000000000000000E+00
  7.0000000000000007E-01	  8.0000000000000004E-01	  0.0000000000000000E+00
  7.0000000000000007E-01	  9.0000000000000002E-01	  0.0000000000000000E+00
  7.0000000000000007E-01	  1.0000000000000000E+00	  0.0000000000000000E+00
  8.0000000000000004E-01	  0.0000000000000000E+00	  0.0000000000000000E+00
  8.0000000000000004E-01	  1.0000000000000001E-01	  0.0000000000000000E+00
  8.0000000000000004E-01	  2.0000000000000001E-01	  0.0000000000000000E+00
  8.0000000000000004E-01	  3.0000000000000004E-01	  0.0000000000000000E+00
  8.0000000000000004E-01	  4.0000000000000002E-01	  0.0000000000000000E+00
  8.0000000000000004E-01	  5.0000000000000000E-01	  0.0000000000000000E+00
  8.0000000000000004E-01	  6.0000000000000009E-01	  0.0000000000000000E+00
  8.0000000000000004E-01	  7.0000000000000007E-01	  0.0000000000000000E+00
  8.0000000000000004E-01	  8.0000000000000004E-01	  0.0000000000000000E+00
  8.0000000000000004E-01	  9.0000000000000002E-01	  0.0000000000000000E+00
  8.0000000000000004E-01	  1.0000000000000000E+00	  0.0000000000000000E+00
  9.0000000000000002E-01	  0.0000000000000000E+00	  0.0000000000000000E+00
  9.0000000000000002E-01	  1.0000000000000001E-01	  0.0000000000000000E+00
  9.0000000000000002E-01	  2.0000000000000001E-01	  0.0000000000000000E+00
  9.0000000000000002E-01	  3.0000000000000004E-01	  0.0000000000000000E+00
  9.0000000000000002E-01	  4.0000000000000002E-01	  0.0000000000000000E+00
  9.0000000000000002E-01	  5.0000000000000000E-01	  0.0000000000000000E+00
  9.0000000000000002E-01	  6.0000000000000009E-01	  0.0000000000000000E+00
  9.0000000000000002E-01	  7.0000000000000007E-01	  0.0000000000000000E+00
  9.0000000000000002E-01	  8.0000000000000004E-01	  0.0000000000000000E+00
  9.0000000000000002E-01	  9.0000000000000002E-01	  0.0000000000000000E+00
  9.0000000000000002E-01	  1.0000000000000000E+00	  0.0000000000000000E+00
  1.0000000000000000E+00	  0.0000000000000000E+00	  0.0000000000000000E+00
  1.0000000000000000E+00	  1.0000000000000001E-01	  0.0000000000000000E+00
  1.0000000000000000E+00	  2.0000000000000001E-01	  0.0000000000000000E+00
  1.0000000000000000E+00	  3.0000000000000004E-01	  0.0000000000000000E+00
  1.0000000000000000E+00	  4.0000000000000002E-01	  0.0000000000000000E+00
  1.0000000000000000E+00	  5.0000000000000000E-01	  0.0000000000000000E+00
  1.0000000000000000E+00	  6.0000000000000009E-01	  0.0000000000000000E+00
  1.0000000000000000E+00	  7.0000000000000007E-01	  0.0000000000000000E+00
  1.0000000000000000E+00	  8.0000000000000004E-01	  0.0000000000000000E+00
  1.0000000000000000E+00	  9.0000000000000002E-01	  0.0000000000000000E+00
  1.0000000000000000E+00	  1.0000000000000000E+00	  0.0000000000000000E+00
CELLS 100 500
4	0	1	12	11
4	1	2	13	12
4	2	3	14	13
4	3	4	15	14
4	4	5	16	15
4	5	6	17	16
4	6	7	18	17
4	7	8	19	18
4	8	9	20	19
4	9	10	21	20
4	11	12	23	22
4	12	13	24	23
4	13	14	25	24
4	14	15	26	25
4	15	16	27	26
4	16	17	28	27
4	17	18	29	28
4	18	19	30	29
4	19	20	31	30
4	20	21	32	31
4	22	23	34	33
4	23	24	35	34
4	24	25	36	35
4	25	26	37	36
4	26	27	38	37
4	27	28	39	38
4	28	29	40	39
4	29	30	41	40
4	30	31	42	41
4	31	32	43	42
4	33	34	45	44
4	34	35	46	45
4	35	36	47	46
4	36	37	48	47
4	37	38	49	48
4	38	39	50	49
4	39	40	51	50
4	40	41	52	51
4	41	42	53	52
4	42	43	54	53
4	44	45	56	55
4	45	46	57	56
4	46	47	58	57
4	47	48	59	58
4	48	49	60	59
4	49	50	61	60
4	50	51	62	61
4	51	52	63	62
4	52	53	64	63
4	53	54	65	64
4	55	56	67	66
4	56	57	68	67
4	57	58	69	68
4	58	59	70	69
4	59	60	71	70
4	60	61	72	71
4	61	62	73	72
4	62	63	74	73
4	63	64	75	74
4	64	65	76	75
4	66	67	78	77
4	67	68	79	78
4	68	69	80	79
4	69	70	81	80
4	70	71	82	81
4	71	72	83	82
4	72	73	84	83
4	73	74	85	84
4	74	75	86	85
4	75	76	87	86
4	77	78	89	88
4	78	79	90	89
4	79	80	91	90
4	80	81	92	91
4	81	82	93	92
4	82	83	94	93
4	83	84	95	94
4	84	85	96	95
4	85	86	97	96
4	86	87	98	97
4	88	89	100	99
4	89	90	101	100
4	90	91	102	101
4	91	92	103	102
4	92	93	104	103
4	93	94	105	104
4	94	95	106	105
4	95	96	107	106
4	96	97	108	107
4	97	98	109	108
4	99	100	111	110
4	100	101	112	111
4	101	102	113	112
4	102	103	114	113
4	103	104	115	114
4	104	105	116	115
4	105	106	117	116
4	106	107	118	117
4	107	108	119	118
4	108	109	120	119
CELL_TYPES 100
9
9
9
9
9
9
9
9
9
9
9
9
9
9
9
9
9
9
9
9
9
9
9
9
9
9
9
9
9
9
9
9
9
9
9
9
9
9
9
9
9
9
9
9
9
9
9
9
9
9
9
9
9
9
9
9
9
9
9
9
9
9
9
9
9
9
9
9
9
9
9
9
9
9
9
9
9
9
9
9
9
9
9
9
9
9
9
9
9
9
9
9
9
9
9
9
9
9
9
9
CELL_DATA 100
SCALARS Vorticity double
LOOKUP_TABLE default
  5.9868981235020088E-02
  1.8396770628194301E-01
  3.4633990839731948E-01
  5.2354273094249959E-01
  6.9222547941799506E-01
  8.1696603057776995E-01
  8.8371978371761251E-01
  8.3813083916809950E-01
  1.8786247524900674E+00
 -3.7187974200069225E+00
  2.2616031800936109E-01
  2.5520308399928360E-01
  2.3067186099062642E-01
  1.8112169009812637E-01
  1.7529122665881891E-01
  1.7743052173794321E-01
  3.5407032654773274E-01
  7.9794028081891899E-02
  1.4405155541486732E+00
 -5.1796563872888797E+00
  4.8393574367017411E-01
  4.2384177916732219E-01
  2.6758508896186500E-01
  5.7912971363530102E-02
 -5.9578398822240392E-02
 -1.3404315136611886E-01
  6.0692303519354104E-02
 -2.0627860788035193E-01
  9.0948665601735190E-01
 -5.6951878287130908E+00
  8.1878290464700410E-01
  5.3317877055926244E-01
  1.5467362328904616E-01
 -2.7762296868472591E-01
 -5.1208941436142930E-01
 -5.5583527535971466E-01
 -2.8865011348576708E-01
 -3.8353439861614075E-01
  5.5340049454608098E-01
 -5.7491664252732528E+00
  1.1200884599298617E+00
  4.3622178481376922E-01
 -2.2390414222832725E-01
 -9.1836071779350281E-01
 -1.2611864882193715E+00
 -1.2159877320269172E+00
 -8.1598277826957022E-01
 -6.2369679537398681E-01
  1.7921823145276564E-01
 -5.9720366999624188E+00
  1.1961404838257368E+00
  1.7416628134653891E-01
 -6.7528608333486728E-01
 -1.5716627668268284E+00
 -1.9426899774908462E+00
 -1.7929742355171852E+00
 -1.3142978197588817E+00
 -8.9892627439770190E-01
 -9.9779744441598997E-02
 -5.7610336692483770E+00
  1.0141319910998678E+00
  2.6720363188693811E-02
 -8.3634560665351898E-01
 -1.8309452918008273E+00
 -2.1472050018060989E+00
 -1.8879589116990616E+00
 -1.4452560891928921E+00
 -1.0333483448525820E+00
 -8.1178880719187074E-01
 -6.1359261792149944E+00
  7.6579104614635096E-01
  2.1028926407871770E-01
 -5.4671018971819529E-01
 -1.6372202539255907E+00
 -2.0441672398779462E+00
 -1.7746883608777457E+00
 -1.3649722828983559E+00
 -9.0885578348133256E-01
 -9.1071076841865573E-01
 -5.8812215902013003E+00
  5.4928208653305344E-01
  6.4929450904299935E-01
  2.0814700353665719E-01
 -9.9955888939000426E-01
 -1.9906229338943195E+00
 -2.3627969024568096E+00
 -2.6354790621967075E+00
 -2.9014568240917726E+00
 -3.6570732796842584E+00
 -6.7647578742888737E+00
  2.5594751346192135E-01
  1.0751339559299782E+00
  1.8260991511524467E+00
  1.4209233347185730E+00
  2.0094698430486796E-01
 -9.0688557954909665E-01
 -2.0868611230184628E+00
 -3.3734517267954791E+00
 -4.9028016510785575E+00
 -7.0825354548162416E+00
POINT_DATA 121
SCALARS Vorticity double
LOOKUP_TABLE default
  5.9868981235020088E-02
  1.2191834375848154E-01
  2.6515380733963123E-01
  4.3494131966990957E-01
  6.0788410518024727E-01
  7.5459575499788256E-01
  8.5034290714769123E-01
  8.6092531144285600E-01
  1.3583777958290835E+00
 -9.2008633375842752E-01
 -3.7187974200069225E+00
  1.4301464962219060E-01
  1.8130002238140194E-01
  2.5404563991729312E-01
  3.2041904760714296E-01
  3.9304528177935993E-01
  4.6547831459813177E-01
  5.5804666564526462E-01
  5.3892874437883420E-01
  1.0592662934721830E+00
 -1.3948283751642654E+00
 -4.4492269036479009E+00
  3.5504803083976760E-01
  3.4728523121153526E-01
  2.9432545327977427E-01
  1.8432290285353697E-01
  8.8686872324558741E-02
  3.9775049552100719E-02
  1.1453750010972780E-01
  7.2069512567156699E-02
  5.5587940759189125E-01
 -2.1312105014589862E+00
 -5.4374221080009857E+00
  6.5135932415858910E-01
  5.6493479951094072E-01
  3.4481981549437390E-01
  5.0637178732428838E-02
 -1.9784445262621636E-01
 -3.1538655997737580E-01
 -2.2945905917306164E-01
 -2.0444270411572640E-01
  2.1826853601673507E-01
 -2.4953667758557279E+00
 -5.7221771269931718E+00
  9.6943568228843291E-01
  7.2706797998747441E-01
  2.2504250910843765E-01
 -3.1630355135437743E-01
 -7.4231489726475730E-01
 -8.8627472749185821E-01
 -7.1911397478549222E-01
 -5.2796602143636617E-01
 -6.8653116997820229E-02
 -2.7471460998092061E+00
 -5.8606015626178358E+00
  1.1581144718777994E+00
  7.3165425247897664E-01
 -7.2200539850721612E-02
 -8.4730342754588139E-01
 -1.4234749875826374E+00
 -1.5532096083135800E+00
 -1.2848106413931386E+00
 -9.1322591695003519E-01
 -3.6079614569013052E-01
 -2.9134079705499074E+00
 -5.8665351846053984E+00
  1.1051362374628022E+00
  6.0278977986520932E-01
 -3.2768626136328838E-01
 -1.2285599371540106E+00
 -1.8731257594811503E+00
 -1.9427070316282979E+00
 -1.6101217640420051E+00
 -1.1729571320505143E+00
 -7.1096079272093848E-01
 -3.2021321000242100E+00
 -5.9484799242316857E+00
  8.8996151862310935E-01
  5.0423316612840763E-01
 -2.8651154227607567E-01
 -1.2128053355245330E+00
 -1.9148844468526158E+00
 -1.9635048785652129E+00
 -1.6182189111670138E+00
 -1.1881081251062906E+00
 -9.1617592598611031E-01
 -3.4349118362567053E+00
 -6.0085738847081469E+00
  6.5753656633970214E-01
  5.4366422645028045E-01
  1.3025514673504474E-01
 -7.4383558237428338E-01
 -1.6678923292719650E+00
 -2.0430688592767052E+00
 -2.0344841521074049E+00
 -1.9526909881670420E+00
 -2.0945241639190049E+00
 -4.3034408781482725E+00
 -6.3229897322450874E+00
  4.0261479999748739E-01
  6.3241451624198808E-01
  9.3966865491552043E-01
  6.1390265000441824E-01
 -3.4207787606522078E-01
 -1.2648396078988393E+00
 -1.9980056668052693E+00
 -2.7493121840256052E+00
 -3.7086958704125168E+00
 -5.6017920649669835E+00
 -6.9236466645525576E+00
  2.5594751346192135E-01
  6.6554073469594976E-01
  1.4506165535412126E+00
  1.6235112429355099E+00
  8.1093515951172046E-01
 -3.5296929762211438E-01
 -1.4968733512837797E+00
 -2.7301564249069710E+00
 -4.1381266889370183E+00
 -5.9926685529474000E+00
 -7.0825354548162416E+00
