# vtk DataFile Version 3.0
VTK datafile generated by Trushant
ASCII
DATASET UNSTRUCTURED_GRID
POINTS 16900 double
  0.0000000000000000E+00	  0.0000000000000000E+00	  0.0000000000000000E+00
  0.0000000000000000E+00	  7.7519379844961239E-03	  0.0000000000000000E+00
  0.0000000000000000E+00	  1.5503875968992248E-02	  0.0000000000000000E+00
  0.0000000000000000E+00	  2.3255813953488372E-02	  0.0000000000000000E+00
  0.0000000000000000E+00	  3.1007751937984496E-02	  0.0000000000000000E+00
  0.0000000000000000E+00	  3.8759689922480620E-02	  0.0000000000000000E+00
  0.0000000000000000E+00	  4.6511627906976744E-02	  0.0000000000000000E+00
  0.0000000000000000E+00	  5.4263565891472867E-02	  0.0000000000000000E+00
  0.0000000000000000E+00	  6.2015503875968991E-02	  0.0000000000000000E+00
  0.0000000000000000E+00	  6.9767441860465115E-02	  0.0000000000000000E+00
  0.0000000000000000E+00	  7.7519379844961239E-02	  0.0000000000000000E+00
  0.0000000000000000E+00	  8.5271317829457363E-02	  0.0000000000000000E+00
  0.0000000000000000E+00	  9.3023255813953487E-02	  0.0000000000000000E+00
  0.0000000000000000E+00	  1.0077519379844961E-01	  0.0000000000000000E+00
  0.0000000000000000E+00	  1.0852713178294573E-01	  0.0000000000000000E+00
  0.0000000000000000E+00	  1.1627906976744186E-01	  0.0000000000000000E+00
  0.0000000000000000E+00	  1.2403100775193798E-01	  0.0000000000000000E+00
  0.0000000000000000E+00	  1.3178294573643412E-01	  0.0000000000000000E+00
  0.0000000000000000E+00	  1.3953488372093023E-01	  0.0000000000000000E+00
  0.0000000000000000E+00	  1.4728682170542634E-01	  0.0000000000000000E+00
  0.0000000000000000E+00	  1.5503875968992248E-01	  0.0000000000000000E+00
  0.0000000000000000E+00	  1.6279069767441862E-01	  0.0000000000000000E+00
  0.0000000000000000E+00	  1.7054263565891473E-01	  0.0000000000000000E+00
  0.0000000000000000E+00	  1.7829457364341084E-01	  0.0000000000000000E+00
  0.0000000000000000E+00	  1.8604651162790697E-01	  0.0000000000000000E+00
  0.0000000000000000E+00	  1.9379844961240311E-01	  0.0000000000000000E+00
  0.0000000000000000E+00	  2.0155038759689922E-01	  0.0000000000000000E+00
  0.0000000000000000E+00	  2.0930232558139533E-01	  0.0000000000000000E+00
  0.0000000000000000E+00	  2.1705426356589147E-01	  0.0000000000000000E+00
  0.0000000000000000E+00	  2.2480620155038761E-01	  0.0000000000000000E+00
  0.0000000000000000E+00	  2.3255813953488372E-01	  0.0000000000000000E+00
  0.0000000000000000E+00	  2.4031007751937983E-01	  0.0000000000000000E+00
  0.0000000000000000E+00	  2.4806201550387597E-01	  0.0000000000000000E+00
  0.0000000000000000E+00	  2.5581395348837210E-01	  0.0000000000000000E+00
  0.0000000000000000E+00	  2.6356589147286824E-01	  0.0000000000000000E+00
  0.0000000000000000E+00	  2.7131782945736432E-01	  0.0000000000000000E+00
  0.0000000000000000E+00	  2.7906976744186046E-01	  0.0000000000000000E+00
  0.0000000000000000E+00	  2.8682170542635660E-01	  0.0000000000000000E+00
  0.0000000000000000E+00	  2.9457364341085268E-01	  0.0000000000000000E+00
  0.0000000000000000E+00	  3.0232558139534882E-01	  0.0000000000000000E+00
  0.0000000000000000E+00	  3.1007751937984496E-01	  0.0000000000000000E+00
  0.0000000000000000E+00	  3.1782945736434109E-01	  0.0000000000000000E+00
  0.0000000000000000E+00	  3.2558139534883723E-01	  0.0000000000000000E+00
  0.0000000000000000E+00	  3.3333333333333331E-01	  0.0000000000000000E+00
  0.0000000000000000E+00	  3.4108527131782945E-01	  0.0000000000000000E+00
  0.0000000000000000E+00	  3.4883720930232559E-01	  0.0000000000000000E+00
  0.0000000000000000E+00	  3.5658914728682167E-01	  0.0000000000000000E+00
  0.0000000000000000E+00	  3.6434108527131781E-01	  0.0000000000000000E+00
  0.0000000000000000E+00	  3.7209302325581395E-01	  0.0000000000000000E+00
  0.0000000000000000E+00	  3.7984496124031009E-01	  0.0000000000000000E+00
  0.0000000000000000E+00	  3.8759689922480622E-01	  0.0000000000000000E+00
  0.0000000000000000E+00	  3.9534883720930231E-01	  0.0000000000000000E+00
  0.0000000000000000E+00	  4.0310077519379844E-01	  0.0000000000000000E+00
  0.0000000000000000E+00	  4.1085271317829458E-01	  0.0000000000000000E+00
  0.0000000000000000E+00	  4.1860465116279066E-01	  0.0000000000000000E+00
  0.0000000000000000E+00	  4.2635658914728680E-01	  0.0000000000000000E+00
  0.0000000000000000E+00	  4.3410852713178294E-01	  0.0000000000000000E+00
  0.0000000000000000E+00	  4.4186046511627908E-01	  0.0000000000000000E+00
  0.0000000000000000E+00	  4.4961240310077522E-01	  0.0000000000000000E+00
  0.0000000000000000E+00	  4.5736434108527130E-01	  0.0000000000000000E+00
  0.0000000000000000E+00	  4.6511627906976744E-01	  0.0000000000000000E+00
  0.0000000000000000E+00	  4.7286821705426357E-01	  0.0000000000000000E+00
  0.0000000000000000E+00	  4.8062015503875966E-01	  0.0000000000000000E+00
  0.0000000000000000E+00	  4.8837209302325579E-01	  0.0000000000000000E+00
  0.0000000000000000E+00	  4.9612403100775193E-01	  0.0000000000000000E+00
  0.0000000000000000E+00	  5.0387596899224807E-01	  0.0000000000000000E+00
  0.0000000000000000E+00	  5.1162790697674421E-01	  0.0000000000000000E+00
  0.0000000000000000E+00	  5.1937984496124034E-01	  0.0000000000000000E+00
  0.0000000000000000E+00	  5.2713178294573648E-01	  0.0000000000000000E+00
  0.0000000000000000E+00	  5.3488372093023251E-01	  0.0000000000000000E+00
  0.0000000000000000E+00	  5.4263565891472865E-01	  0.0000000000000000E+00
  0.0000000000000000E+00	  5.5038759689922478E-01	  0.0000000000000000E+00
  0.0000000000000000E+00	  5.5813953488372092E-01	  0.0000000000000000E+00
  0.0000000000000000E+00	  5.6589147286821706E-01	  0.0000000000000000E+00
  0.0000000000000000E+00	  5.7364341085271320E-01	  0.0000000000000000E+00
  0.0000000000000000E+00	  5.8139534883720934E-01	  0.0000000000000000E+00
  0.0000000000000000E+00	  5.8914728682170536E-01	  0.0000000000000000E+00
  0.0000000000000000E+00	  5.9689922480620150E-01	  0.0000000000000000E+00
  0.0000000000000000E+00	  6.0465116279069764E-01	  0.0000000000000000E+00
  0.0000000000000000E+00	  6.1240310077519378E-01	  0.0000000000000000E+00
  0.0000000000000000E+00	  6.2015503875968991E-01	  0.0000000000000000E+00
  0.0000000000000000E+00	  6.2790697674418605E-01	  0.0000000000000000E+00
  0.0000000000000000E+00	  6.3565891472868219E-01	  0.0000000000000000E+00
  0.0000000000000000E+00	  6.4341085271317833E-01	  0.0000000000000000E+00
  0.0000000000000000E+00	  6.5116279069767447E-01	  0.0000000000000000E+00
  0.0000000000000000E+00	  6.5891472868217049E-01	  0.0000000000000000E+00
  0.0000000000000000E+00	  6.6666666666666663E-01	  0.0000000000000000E+00
  0.0000000000000000E+00	  6.7441860465116277E-01	  0.0000000000000000E+00
  0.0000000000000000E+00	  6.8217054263565891E-01	  0.0000000000000000E+00
  0.0000000000000000E+00	  6.8992248062015504E-01	  0.0000000000000000E+00
  0.0000000000000000E+00	  6.9767441860465118E-01	  0.0000000000000000E+00
  0.0000000000000000E+00	  7.0542635658914732E-01	  0.0000000000000000E+00
  0.0000000000000000E+00	  7.1317829457364335E-01	  0.0000000000000000E+00
  0.0000000000000000E+00	  7.2093023255813948E-01	  0.0000000000000000E+00
  0.0000000000000000E+00	  7.2868217054263562E-01	  0.0000000000000000E+00
  0.0000000000000000E+00	  7.3643410852713176E-01	  0.0000000000000000E+00
  0.0000000000000000E+00	  7.4418604651162790E-01	  0.0000000000000000E+00
  0.0000000000000000E+00	  7.5193798449612403E-01	  0.0000000000000000E+00
  0.0000000000000000E+00	  7.5968992248062017E-01	  0.0000000000000000E+00
  0.0000000000000000E+00	  7.6744186046511631E-01	  0.0000000000000000E+00
  0.0000000000000000E+00	  7.7519379844961245E-01	  0.0000000000000000E+00
  0.0000000000000000E+00	  7.8294573643410847E-01	  0.0000000000000000E+00
  0.0000000000000000E+00	  7.9069767441860461E-01	  0.0000000000000000E+00
  0.0000000000000000E+00	  7.9844961240310075E-01	  0.0000000000000000E+00
  0.0000000000000000E+00	  8.0620155038759689E-01	  0.0000000000000000E+00
  0.0000000000000000E+00	  8.1395348837209303E-01	  0.0000000000000000E+00
  0.0000000000000000E+00	  8.2170542635658916E-01	  0.0000000000000000E+00
  0.0000000000000000E+00	  8.2945736434108530E-01	  0.0000000000000000E+00
  0.0000000000000000E+00	  8.3720930232558133E-01	  0.0000000000000000E+00
  0.0000000000000000E+00	  8.4496124031007747E-01	  0.0000000000000000E+00
  0.0000000000000000E+00	  8.5271317829457360E-01	  0.0000000000000000E+00
  0.0000000000000000E+00	  8.6046511627906974E-01	  0.0000000000000000E+00
  0.0000000000000000E+00	  8.6821705426356588E-01	  0.0000000000000000E+00
  0.0000000000000000E+00	  8.7596899224806202E-01	  0.0000000000000000E+00
  0.0000000000000000E+00	  8.8372093023255816E-01	  0.0000000000000000E+00
  0.0000000000000000E+00	  8.9147286821705429E-01	  0.0000000000000000E+00
  0.0000000000000000E+00	  8.9922480620155043E-01	  0.0000000000000000E+00
  0.0000000000000000E+00	  9.0697674418604646E-01	  0.0000000000000000E+00
  0.0000000000000000E+00	  9.1472868217054260E-01	  0.0000000000000000E+00
  0.0000000000000000E+00	  9.2248062015503873E-01	  0.0000000000000000E+00
  0.0000000000000000E+00	  9.3023255813953487E-01	  0.0000000000000000E+00
  0.0000000000000000E+00	  9.3798449612403101E-01	  0.0000000000000000E+00
  0.0000000000000000E+00	  9.4573643410852715E-01	  0.0000000000000000E+00
  0.0000000000000000E+00	  9.5348837209302328E-01	  0.0000000000000000E+00
  0.0000000000000000E+00	  9.6124031007751931E-01	  0.0000000000000000E+00
  0.0000000000000000E+00	  9.6899224806201545E-01	  0.0000000000000000E+00
  0.0000000000000000E+00	  9.7674418604651159E-01	  0.0000000000000000E+00
  0.0000000000000000E+00	  9.8449612403100772E-01	  0.0000000000000000E+00
  0.0000000000000000E+00	  9.9224806201550386E-01	  0.0000000000000000E+00
  0.0000000000000000E+00	  1.0000000000000000E+00	  0.0000000000000000E+00
  7.7519379844961239E-03	  0.0000000000000000E+00	  0.0000000000000000E+00
[...]
CELL_DATA 16641
SCALARS Vorticity double
LOOKUP_TABLE default
 -1.1308859418431511E-03
 -4.7158746128902265E-03
 -1.0091182139309844E-02
 -1.6749803744133897E-02
 -2.3721279911252412E-02
 -3.0090456624524805E-02
 -3.5102549867142376E-02
 -3.8153885301351630E-02
 -3.8759899147238847E-02
 -3.6525236141062019E-02
 -3.1120817570014645E-02
 -2.2267434536062745E-02
 -9.7244042006597257E-03
  6.7180668110115582E-03
  2.7243855713748825E-02
  5.2013994928970589E-02
  8.1168390012858513E-02
  1.1482658099709633E-01
  1.5308783751791891E-01
  1.9603080316208027E-01
  2.4371285115106989E-01
  2.9616927501937201E-01
  3.5341240972023585E-01
  4.1543075750470831E-01
  4.8218817685177745E-01
  5.5362318022720236E-01
  6.2964837650868910E-01
  7.1015008583031813E-01
  7.9498814787204486E-01
  8.8399593889803763E-01
  9.7698060788032237E-01
  1.0737235376546381E+00
  1.1739810331196399E+00
  1.2774852349233667E+00
  1.3839452538255363E+00
  1.4930485179449264E+00
  1.6044623223776118E+00
  1.7178355681949498E+00
  1.8328006755988484E+00
  1.9489756540302026E+00
  2.0659663103020045E+00
  2.1833685743706970E+00
  2.3007709211772363E+00
  2.4177568660913789E+00
  2.5339075108854106E+00
  2.6488041168503145E+00
  2.7620306816484290E+00
  2.8731764967680791E+00
  2.9818386629992517E+00
  3.0876245421728052E+00
  3.1901541244818170E+00
  3.2890622920117898E+00
  3.3840009606216723E+00
  3.4746410840122453E+00
  3.5606745056619524E+00
  3.6418156462706364E+00
  3.7178030163957883E+00
  3.7884005460607093E+00
  3.8533987252271724E+00
  3.9126155511259206E+00
  3.9658972804984320E+00
  4.0131189867975348E+00
  4.0541849243008903E+00
  4.0890287028925849E+00
  4.1176132789506852E+00
  4.1399307693339642E+00
  4.1560020968847908E+00
  4.1658764771577772E+00
  4.1696307572498847E+00
  4.1673686186560381E+00
  4.1592196570176698E+00
  4.1453383524864087E+00
  4.1259029452111493E+00
  4.1011142311973749E+00
  4.0711942945095707E+00
  4.0363851925216121E+00
  3.9969476117010854E+00
  3.9531595122823009E+00
  3.9053147811868612E+00
  3.8537219137469050E+00
  3.7987027462437384E+00
  3.7405912630790166E+00
  3.6797325046541665E+00
  3.6164816048823778E+00
  3.5512029908698892E+00
  3.4842697819023898E+00
  3.4160634307445203E+00
  3.3469736577737925E+00
  3.2773987380967471E+00
  3.2077462141384809E+00
  3.1384341220255836E+00
  3.0698928403725101E+00
  3.0025676960641334E+00
  2.9369224948514310E+00
  2.8734441869815659E+00
  2.8126489320842425E+00
  2.7550898961321071E+00
  2.7013672001899738E+00
  2.6521405504246758E+00
  2.6081452170459545E+00
  2.5702122032888344E+00
  2.5392936624785785E+00
  2.5164948916252965E+00
  2.5031145659974876E+00
  2.5006952956263557E+00
  2.5110871005664235E+00
  2.5365270421346664E+00
  2.5797390483157550E+00
  2.6440589891273318E+00
  2.7335913858799423E+00
  2.8534059427062712E+00
  3.0097846712528011E+00
  3.2105342971255477E+00
  3.4653849217395991E+00
  3.7865064738094718E+00
  4.1891928251936896E+00
  4.6927959145946652E+00
  5.3220499723283279E+00
  6.1090271080311895E+00
  7.0961333816403220E+00
  8.3407905430726998E+00
  9.9225911113860725E+00
  1.1952819932779642E+01
  1.4580033078208423E+01
  1.7955733077860945E+01
  2.1991539702651288E+01
  2.5101597592063204E+01
  1.7366053623780665E+01
 -6.1445649243058504E+01
 -4.7092221498897212E-03
 -6.6941284967997538E-03
 -8.6678212639964090E-03
 -1.0934737986912154E-02
 -1.3167477107169218E-02
 -1.4840987327751624E-02
 -1.5416701189724786E-02
 -1.4407106447747852E-02
 -1.1390578873315051E-02
 -6.0080194041995721E-03
  2.0457081660216541E-03
  1.3030622539388055E-02
  2.7169146638646155E-02
  4.4651980898733880E-02
  6.5642457794190326E-02
  9.0279636396053922E-02
  1.1868040391404840E-01
  1.5094081964248290E-01
  1.8713689663927890E-01
  2.2732497886546801E-01
  2.7154183955438327E-01
  3.1980460048916587E-01
  3.7211055090826722E-01
  4.2843692799673583E-01
  4.8874070749247728E-01
  5.5295844212358425E-01
  6.2100617682599590E-01
  6.9277946252856237E-01
  7.6815348439572528E-01
  8.4698331552662620E-01
  9.2910430302435110E-01
  1.0143325899170677E+00
  1.1024657735158061E+00
  1.1932836983398292E+00
  1.2865493796583225E+00
  1.3820100519303589E+00
  1.4793983349294266E+00
  1.5784335090791295E+00
  1.6788228904750193E+00
  1.7802632952014814E+00
  1.8824425818542878E+00
  1.9850412606342440E+00
  2.0877341569736081E+00
  2.1901921173848229E+00
  2.2920837450725307E+00
  2.3930771528177512E+00
  2.4928417207212616E+00
  2.5910498465757987E+00
  2.6873786769179766E+00
  2.7815118071851512E+00
  2.8731409398636840E+00
  2.9619674900570381E+00
  3.0477041285178390E+00
  3.1300762528703969E+00
  3.2088233784912275E+00
  3.2837004413070057E+00
  3.3544790056034328E+00
  3.4209483708064794E+00
  3.4829165720906472E+00
  3.5402112705792925E+00
  3.5926805298217204E+00
  3.6401934761538612E+00
  3.6826408414674550E+00
  3.7199353878220291E+00
  3.7520122142306334E+00
  3.7788289468321330E+00
  3.8003658145291426E+00
  3.8166256130225942E+00
  3.8276335610142906E+00
  3.8334370531825277E+00
  3.8341053153698432E+00
  3.8297289682650577E+00
  3.8204195067252851E+00
  3.8063087027811990E+00
  3.7875479413168436E+00
  3.7643074984335474E+00
  3.7367757736192466E+00
  3.7051584880784496E+00
  3.6696778629682769E+00
  3.6305717928749317E+00
  3.5880930317047910E+00
  3.5425084103202362E+00
  3.4940981078043656E+00
  3.4431550012939325E+00
  3.3899841230062817E+00
  3.3349022575677809E+00
  3.2782377182339841E+00
  3.2203303473329030E+00
  3.1615317945819843E+00
  3.1022061372205014E+00
  3.0427309186433535E+00
  2.9834986980011897E+00
  2.9249192227398315E+00
  2.8674223601066298E+00
  2.8114619531982314E+00
  2.7575208032328864E+00
  2.7061170235750609E+00
  2.6578120638545779E+00
  2.6132207655166639E+00
  2.5730238843570308E+00
  2.5379836016882957E+00
  2.5089626436656944E+00
  2.4869477366524704E+00
  2.4730782420880089E+00
  2.4686809310639384E+00
  2.4753119666787526E+00
  2.4948072458883086E+00
  2.5293422898515474E+00
  2.5815028320588502E+00
  2.6543670954938059E+00
  2.7516004174040742E+00
  2.8775622905069014E+00
  3.0374249025847933E+00
  3.2373005870363505E+00
  3.4843725765006579E+00
  3.7870173954857540E+00
  4.1548937555417034E+00
  4.5989403522675589E+00
  5.1311424467454536E+00
  5.7637095284433810E+00
  6.5067148738961551E+00
  7.3615889543754287E+00
  8.3030304711447798E+00
  9.2271454488654268E+00
  9.7953833893559548E+00
  8.9311631196887138E+00
  3.0545991481896331E+00
 -2.0186645161197273E+01
 -9.5470524373055895E+01
 -1.0058568045701401E-02
 -8.6834166548815372E-03
 -6.9500799517698622E-03
 -5.1512471653172350E-03
 -3.1692481530864675E-03
 -6.8583635046989681E-04
  2.6854050459198071E-03
  7.3305869543530333E-03
  1.3605388798617299E-02
  2.1824836170024633E-02
  3.2262361542891721E-02
  4.5152651373163946E-02
  6.0695633487201743E-02
  7.9060424910721253E-02
  1.0038877834261768E-01
  1.2479790201272505E-01
  1.5238267607320868E-01
  1.8321734666162590E-01
  2.1735679457654059E-01
  2.5483747258942963E-01
  2.9567809502842657E-01
  3.3988015068259730E-01
  3.8742829765763553E-01
  4.3829068753538464E-01
  4.9241925636148881E-01
  5.4975001161984893E-01
  6.1020333733661869E-01
  6.7368433363514246E-01
  7.4008320227650559E-01
  8.0927568581921649E-01
  8.8112356488306043E-01
  9.5547521549041692E-01
  1.0321662264829634E+00
  1.1110200754860884E+00
  1.1918488607427167E+00
  1.2744540852978530E+00
  1.3586274894289296E+00
  1.4441519268363008E+00
  1.5308022798907484E+00
  1.6183464091442197E+00
  1.7065461323147832E+00
  1.7951582280301455E+00
  1.8839354597334603E+00
  1.9726276153017195E+00
  2.0609825580854699E+00
  2.1487472852369200E+00
  2.2356689893424346E+00
  2.3214961195086281E+00
  2.4059794381646058E+00
  2.4888730699344173E+00
  2.5699355390034824E+00
  2.6489307914519875E+00
  2.7256291990599713E+00
  2.7998085411067057E+00
  2.8712549606958131E+00
  2.9397638921422913E+00
  3.0051409559639572E+00
  3.0672028180331199E+00
  3.1257780094703635E+00
  3.1807077039064229E+00
  3.2318464488055714E+00
  3.2790628476396413E+00
  3.3222401898303917E+00
  3.3612770255439273E+00
  3.3960876826285098E+00
  3.4266027232405771E+00
  3.4527693380074571E+00
  3.4745516759335531E+00
  3.4919311086745486E+00
  3.5049064282869775E+00
  3.5134939781142838E+00
  3.5177277171026438E+00
  3.5176592185584816E+00
  3.5133576051747619E+00
  3.5049094230764593E+00
  3.4924184586810156E+00
  3.4760055033539752E+00
  3.4558080721836753E+00
  3.4319800847265109E+00
  3.4046915173163654E+00
  3.3741280385254018E+00
  3.3404906416544877E+00
  3.3039952907765779E+00
  3.2648725999249257E+00
  3.2233675685948451E+00
  3.1797394009158664E+00
  3.1342614407738938E+00
  3.0872212609656380E+00
  3.0389209513186288E+00
  2.9896776587988021E+00
  2.9398244421599160E+00
  2.8897115148770487E+00
  2.8397079631506701E+00
  2.7902040408276925E+00
  2.7416141602327699E+00
  2.6943807170486482E+00
  2.6489789081718578E+00
  2.6059227231143867E+00
  2.5657723105737671E+00
  2.5291429398010625E+00
  2.4967157874194994E+00
  2.4692507782821416E+00
  2.4476016845956607E+00
  2.4327336272726066E+00
  2.4257430075367736E+00
  2.4278796968179877E+00
  2.4405709884680187E+00
  2.4654463080090663E+00
  2.5043609058101604E+00
  2.5594155925332354E+00
  2.6329678285108007E+00
  2.7276268195161837E+00
  2.8462211268264657E+00
  2.9917205751830598E+00
  3.1670827463932389E+00
  3.3749734921827765E+00
  3.6172707362421441E+00
  3.8941790378327177E+00
  4.2026071050115288E+00
  4.5330664523377209E+00
  4.8634203044712576E+00
  5.1455047341979956E+00
  5.2745714243489532E+00
  5.0144413850740746E+00
  3.8001664326645912E+00
  1.8269006655543077E-01
 -9.7401260768535831E+00
 -3.5783844322823057E+01
 -9.3480949951496029E+01
 -1.6676629267460139E-02
 -1.1031882450929188E-02
 -5.2981033621213799E-03
  4.4995516275418316E-04
  6.3289524887190276E-03
  1.2581773092462115E-02
  1.9510598266035357E-02
  2.7430253219869000E-02
  3.6641263426810691E-02
  4.7416633032395399E-02
  5.9996843848557177E-02
  7.4589290021240179E-02
  9.1369853925522687E-02
  1.1048533730660230E-01
  1.3205607423847682E-01
  1.5617840239865244E-01
  1.8292686029854949E-01
  2.1235607789128749E-01
  2.4450237680948092E-01
  2.7938511760384294E-01
  3.1700783781765751E-01
  3.5735922377470525E-01
  4.0041395453633277E-01
  4.4613345073117205E-01
  4.9446655500282172E-01
  5.4535016522359403E-01
  5.9870983664708688E-01
  6.5446036491308346E-01
  7.1250635828000253E-01
  7.7274280460157518E-01
  8.3505563632200264E-01
  8.9932229506500194E-01
  9.6541229616259661E-01
  1.0331877926373301E+00
  1.1025041376491509E+00
  1.1732104441834488E+00
  1.2451501407332275E+00
  1.3181615218658034E+00
  1.3920782928180457E+00
  1.4667301075949668E+00
  1.5419431004205173E+00
  1.6175404107779561E+00
  1.6933427026557368E+00
  1.7691686789636671E+00
  1.8448355923870381E+00
  1.9201597541913302E+00
  1.9949570426680381E+00
  2.0690434130173774E+00
  2.1422354104932788E+00
  2.2143506885897017E+00
  2.2852085339269039E+00
  2.3546303993058433E+00
  2.4224404461438835E+00
  2.4884660971927266E+00
  2.5525386000780674E+00
  2.6144936017991891E+00
  2.6741717338952529E+00
  2.7314192075337154E+00
  2.7860884173154243E+00
  2.8380385521309544E+00
  2.8871362109538463E+00
  2.9332560210286345E+00
  2.9762812555144080E+00
  3.0161044472875278E+00
  3.0526279952987987E+00
  3.0857647596294129E+00
  3.1154386412047104E+00
  3.1415851420133176E+00
  3.1641519016497353E+00
  3.1830992060592753E+00
  3.1984004645240778E+00
  3.2100426511969107E+00
  3.2180267078756617E+00
  3.2223679052267147E+00
  3.2230961603219868E+00
  3.2202563091660097E+00
  3.2139083338716281E+00
  3.2041275453133862E+00
  3.1910047234670897E+00
  3.1746462192557150E+00
  3.1551740235934167E+00
  3.1327258114820973E+00
  3.1074549715052013E+00
  3.0795306339220434E+00
  3.0491377138387672E+00
  3.0164769896679027E+00
  2.9817652413377940E+00
  2.9452354775223504E+00
  2.9071372865665945E+00
  2.8677373517971607E+00
  2.8273201785014823E+00
  2.7861890869396388E+00
  2.7446675331176231E+00
  2.7031008263379270E+00
  2.6618583191512997E+00
  2.6213361503110288E+00
  2.5819606232217898E+00
  2.5441922989999237E+00
  2.5085308714153571E+00
  2.4755208660134320E+00
  2.4457581609330461E+00
  2.4198972528313494E+00
  2.3986590744559955E+00
  2.3828389919071475E+00
  2.3733143431132606E+00
  2.3710504875799252E+00
  2.3771037690444947E+00
  2.3926189728474854E+00
  2.4188176791356271E+00
  2.4569722038141015E+00
  2.5083573114924858E+00
  2.5741681189550003E+00
  2.6553867587680706E+00
  2.7525708881037314E+00
  2.8655209704750826E+00
  2.9927542813980681E+00
  3.1306589511888130E+00
  3.2720933189124732E+00
  3.4039722355600808E+00
  3.5028972538787384E+00
  3.5267852733962712E+00
  3.3978120487719137E+00
  2.9653432866325753E+00
  1.9200980977580029E+00
 -4.1500634006730697E-01
 -5.5976764608326777E+00
 -1.7168328543299474E+01
 -4.1806492802249146E+01
 -8.4597263500571117E+01
 -2.3634626057523880E-02
 -1.3472067712937949E-02
 -3.6625841777464833E-03
  5.9189474627049654E-03
  1.5452079497972528E-02
  2.5170248642236336E-02
  3.5337524801103720E-02
  4.6224487195790309E-02
  5.8090491553756514E-02
  7.1172926007779275E-02
  8.5681875119105660E-02
  1.0179836619209877E-01
  1.1967474749557594E-01
  1.3943620580040009E-01
  1.6118280089633463E-01
  1.8499165277684712E-01
  2.1091908330737938E-01
  2.3900261560113867E-01
  2.6926279343114778E-01
  3.0170481566125884E-01
  3.3631999731325568E-01
  3.7308707610017178E-01
  4.1197338512296922E-01
  4.5293591142472639E-01
  4.9592225770549214E-01
  5.4087152159300134E-01
  5.8771510393687587E-01
  6.3637745491651299E-01
  6.8677676445711067E-01
  7.3882560158259314E-01
  7.9243150589764844E-01
  8.4749753335463307E-01
  9.0392275778064490E-01
  9.6160272926475343E-01
  1.0204298903827478E+00
  1.0802939513157797E+00
  1.1410822251523887E+00
  1.2026799250073124E+00
  1.2649704250068987E+00
  1.3278354876463618E+00
  1.3911554604900533E+00
  1.4548094456382943E+00
  1.5186754458033607E+00
  1.5826304912070381E+00
  1.6465507518203122E+00
  1.7103116397028784E+00
  1.7737879063597868E+00
  1.8368537401105083E+00
  1.8993828684602223E+00
  1.9612486703741765E+00
  2.0223243031853104E+00
  2.0824828486162414E+00
  2.1415974820736623E+00
  2.1995416689818410E+00
  2.2561893914688387E+00
  2.3114154082115648E+00
  2.3650955496918358E+00
  2.4171070505236099E+00
  2.4673289198902579E+00
  2.5156423504891587E+00
  2.5619311657280996E+00
  2.6060823042631842E+00
  2.6479863403203923E+00
  2.6875380376118279E+00
  2.7246369340523273E+00
  2.7591879539117912E+00
  2.7911020435128728E+00
  2.8202968261123034E+00
  2.8466972711971339E+00
  2.8702363730953810E+00
  2.8908558335550607E+00
  2.9085067427986080E+00
  2.9231502535242044E+00
  2.9347582424156982E+00
  2.9433139539540627E+00
  2.9488126217122699E+00
  2.9512620628803212E+00
  2.9506832425275067E+00
  2.9471108050858406E+00
  2.9405935717544232E+00
  2.9311950040028321E+00
  2.9189936351164270E+00
  2.9040834738016192E+00
  2.8865743862762909E+00
  2.8665924660271442E+00
  2.8442804035305005E+00
  2.8197978717002155E+00
  2.7933219466163828E+00
  2.7650475871349451E+00
  2.7351882011589232E+00
  2.7039763304626780E+00
  2.6716644896787254E+00
  2.6385261978918537E+00
  2.6048572425121157E+00
  2.5709772136646740E+00
  2.5372313417392163E+00
  2.5039926588655352E+00
  2.4716644839605890E+00
  2.4406831965035276E+00
  2.4115212106315123E+00
  2.3846899806315918E+00
  2.3607427505730927E+00
  2.3402765897186719E+00
  2.3239330108196348E+00
  2.3123961218022018E+00
  2.3063867725758214E+00
  2.3066504706170292E+00
  2.3139358681310678E+00
  2.3289592436416653E+00
  2.3523484122464402E+00
  2.3845565711787953E+00
  2.4257321484093137E+00
  2.4755237385598385E+00
  2.5327877496478948E+00
  2.5951467162114761E+00
  2.6583109459331049E+00
  2.7150100716835195E+00
  2.7532520309260247E+00
  2.7533644472507657E+00
  2.6827165966021367E+00
  2.4857893592607518E+00
  2.0644344493074422E+00
  1.2365067106820946E+00
 -3.5448814086829039E-01
 -3.4386964803268447E+00
 -9.5291767227677937E+00
 -2.1531892747311282E+01
 -4.3540832549604623E+01
 -7.5333943554693931E+01
 -3.0104734673933788E-02
 -1.5563349858524990E-02
 -1.8027658607986858E-03
  1.1433630215237646E-02
  2.4387302884111024E-02
  3.7304438293487362E-02
  5.0434649729031084E-02
  6.4022217477306936E-02
  7.8297004186628189E-02
  9.3467746340425747E-02
  1.0971815025480930E-01
  1.2720532359784975E-01
  1.4605986533673770E-01
  1.6638700814637158E-01
  1.8826835617707682E-01
  2.1176390488506527E-01
  2.3691414276211334E-01
  2.6374211531904423E-01
  2.9225538546287272E-01
  3.2244785858423797E-01
  3.5430146133643214E-01
  3.8778767482842247E-01
  4.2286892900792555E-01
  4.5949986757279720E-01
  4.9762849327089254E-01
  5.3719720286799533E-01
  5.7814371997233838E-01
  6.2040193266466137E-01
  6.6390264170546243E-01
  7.0857422408856607E-01
  7.5434321593183595E-01
  8.0113481815194676E-01
  8.4887332804719395E-01
  8.9748249978381567E-01
  9.4688583681461114E-01
  9.9700681941934111E-01
  1.0477690708112561E+00
  1.0990964655725168E+00
  1.1509131845362965E+00
  1.2031437206018727E+00
  1.2557128403317759E+00
  1.3085455065214571E+00
  1.3615667672395455E+00
  1.4147016171011184E+00
  1.4678748367502985E+00
  1.5210108166869343E+00
  1.5740333716715942E+00
  1.6268655519816728E+00
  1.6794294577680529E+00
  1.7316460626765235E+00
  1.7834350527517380E+00
  1.8347146864352526E+00
  1.8854016812049992E+00
  1.9354111320837288E+00
  1.9846564668712936E+00
  2.0330494425330934E+00
  2.0805001867081359E+00
  2.1269172877885385E+00
  2.1722079364719842E+00
  2.2162781211039180E+00
  2.2590328785116482E+00
  2.3003766013929208E+00
  2.3402134026621750E+00
  2.3784475364841091E+00
  2.4149838750426338E+00
  2.4497284394102374E+00
  2.4825889822057032E+00
  2.5134756190651641E+00
  2.5423015053116567E+00
  2.5689835536021079E+00
  2.5934431877693775E+00
  2.6156071275737904E+00
  2.6354081986479456E+00
  2.6527861615769104E+00
  2.6676885538212010E+00
  2.6800715380820623E+00
  2.6899007507491599E+00
  2.6971521442828572E+00
  2.7018128177911489E+00
  2.7038818306898511E+00
  2.7033709952084166E+00
  2.7003056446457068E+00
  2.6947253757094276E+00
  2.6866847650024455E+00
  2.6762540617507069E+00
  2.6635198611856339E+00
  2.6485857655578728E+00
  2.6315730424901274E+00
  2.6126212931410588E+00
  2.5918891452388353E+00
  2.5695549881330280E+00
  2.5458177681400045E+00
  2.5208978619515943E+00
  2.4950380428009260E+00
  2.4685045471338953E+00
  2.4415882369407722E+00
  2.4146058322440558E+00
  2.3879011562497570E+00
  2.3618462879436906E+00
  2.3368424475026797E+00
  2.3133203407319902E+00
  2.2917395488492116E+00
  2.2725863542124647E+00
  2.2563691200502896E+00
  2.2436099632821338E+00
  2.2348309315307682E+00
  2.2305321556354332E+00
  2.2311584020310042E+00
  2.2370489454961522E+00
  2.2483634781842894E+00
  2.2649734544491675E+00
  2.2863031266619807E+00
  2.3110962703331861E+00
  2.3370708599706096E+00
  2.3604002630263086E+00
  2.3749171732796714E+00
  2.3708581372321587E+00
  2.3328163766067131E+00
  2.2362727829414291E+00
  2.0414639996636832E+00
  1.6820558298118042E+00
  1.0433154805102609E+00
 -8.1421411620596990E-02
 -2.0787139654541011E+00
 -5.6862669786462705E+00
 -1.2275298251945795E+01
 -2.4072103753230213E+01
 -4.3303936889763179E+01
 -6.7280621409834779E+01
 -3.5465174590266074E-02
 -1.6878618157061803E-02
  5.7731610435204157E-04
  1.7228412419729600E-02
  3.3356442193607012E-02
  4.9220543506605770E-02
  6.5064221449633308E-02
  8.1114861864897733E-02
  9.7580610115126157E-02
  1.1464724161332658E-01
  1.3247609693426116E-01
  1.5120329370439675E-01
  1.7094004305407709E-01
  1.9177378022003055E-01
  2.1376982579597564E-01
  2.3697334717498950E-01
  2.6141145067610133E-01
  2.8709528816696850E-01
  3.1402210333524899E-01
  3.4217717258693153E-01
  3.7153561596971002E-01
  4.0206406687590085E-01
  4.3372219761089048E-01