# vtk DataFile Version 3.0
VTK datafile generated by Trushant
ASCII
DATASET UNSTRUCTURED_GRID
POINTS 16900 double
  0.0000000000000000E+00	  0.0000000000000000E+00	  0.0000000000000000E+00
  0.0000000000000000E+00	  7.7519379844961239E-03	  0.0000000000000000E+00
  0.0000000000000000E+00	  1.5503875968992248E-02	  0.0000000000000000E+00
  0.0000000000000000E+00	  2.3255813953488372E-02	  0.0000000000000000E+00
  0.0000000000000000E+00	  3.1007751937984496E-02	  0.0000000000000000E+00
  0.0000000000000000E+00	  3.8759689922480620E-02	  0.0000000000000000E+00
  0.0000000000000000E+00	  4.6511627906976744E-02	  0.0000000000000000E+00
  0.0000000000000000E+00	  5.4263565891472867E-02	  0.0000000000000000E+00
  0.0000000000000000E+00	  6.2015503875968991E-02	  0.0000000000000000E+00
  0.0000000000000000E+00	  6.9767441860465115E-02	  0.0000000000000000E+00
  0.0000000000000000E+00	  7.7519379844961239E-02	  0.0000000000000000E+00
  0.0000000000000000E+00	  8.5271317829457363E-02	  0.0000000000000000E+00
  0.0000000000000000E+00	  9.3023255813953487E-02	  0.0000000000000000E+00
  0.0000000000000000E+00	  1.0077519379844961E-01	  0.0000000000000000E+00
  0.0000000000000000E+00	  1.0852713178294573E-01	  0.0000000000000000E+00
  0.0000000000000000E+00	  1.1627906976744186E-01	  0.0000000000000000E+00
  0.0000000000000000E+00	  1.2403100775193798E-01	  0.0000000000000000E+00
  0.0000000000000000E+00	  1.3178294573643412E-01	  0.0000000000000000E+00
  0.0000000000000000E+00	  1.3953488372093023E-01	  0.0000000000000000E+00
  0.0000000000000000E+00	  1.4728682170542634E-01	  0.0000000000000000E+00
  0.0000000000000000E+00	  1.5503875968992248E-01	  0.0000000000000000E+00
  0.0000000000000000E+00	  1.6279069767441862E-01	  0.0000000000000000E+00
  0.0000000000000000E+00	  1.7054263565891473E-01	  0.0000000000000000E+00
  0.0000000000000000E+00	  1.7829457364341084E-01	  0.0000000000000000E+00
  0.0000000000000000E+00	  1.8604651162790697E-01	  0.0000000000000000E+00
  0.0000000000000000E+00	  1.9379844961240311E-01	  0.0000000000000000E+00
  0.0000000000000000E+00	  2.0155038759689922E-01	  0.0000000000000000E+00
  0.0000000000000000E+00	  2.0930232558139533E-01	  0.0000000000000000E+00
  0.0000000000000000E+00	  2.1705426356589147E-01	  0.0000000000000000E+00
  0.0000000000000000E+00	  2.2480620155038761E-01	  0.0000000000000000E+00
  0.0000000000000000E+00	  2.3255813953488372E-01	  0.0000000000000000E+00
  0.0000000000000000E+00	  2.4031007751937983E-01	  0.0000000000000000E+00
  0.0000000000000000E+00	  2.4806201550387597E-01	  0.0000000000000000E+00
  0.0000000000000000E+00	  2.5581395348837210E-01	  0.0000000000000000E+00
  0.0000000000000000E+00	  2.6356589147286824E-01	  0.0000000000000000E+00
  0.0000000000000000E+00	  2.7131782945736432E-01	  0.0000000000000000E+00
  0.0000000000000000E+00	  2.7906976744186046E-01	  0.0000000000000000E+00
  0.0000000000000000E+00	  2.8682170542635660E-01	  0.0000000000000000E+00
  0.0000000000000000E+00	  2.9457364341085268E-01	  0.0000000000000000E+00
  0.0000000000000000E+00	  3.0232558139534882E-01	  0.0000000000000000E+00
  0.0000000000000000E+00	  3.1007751937984496E-01	  0.0000000000000000E+00
  0.0000000000000000E+00	  3.1782945736434109E-01	  0.0000000000000000E+00
  0.0000000000000000E+00	  3.2558139534883723E-01	  0.0000000000000000E+00
  0.0000000000000000E+00	  3.3333333333333331E-01	  0.0000000000000000E+00
  0.0000000000000000E+00	  3.4108527131782945E-01	  0.0000000000000000E+00
  0.0000000000000000E+00	  3.4883720930232559E-01	  0.0000000000000000E+00
  0.0000000000000000E+00	  3.5658914728682167E-01	  0.0000000000000000E+00
  0.0000000000000000E+00	  3.6434108527131781E-01	  0.0000000000000000E+00
  0.0000000000000000E+00	  3.7209302325581395E-01	  0.0000000000000000E+00
  0.0000000000000000E+00	  3.7984496124031009E-01	  0.0000000000000000E+00
  0.0000000000000000E+00	  3.8759689922480622E-01	  0.0000000000000000E+00
  0.0000000000000000E+00	  3.9534883720930231E-01	  0.0000000000000000E+00
  0.0000000000000000E+00	  4.0310077519379844E-01	  0.0000000000000000E+00
  0.0000000000000000E+00	  4.1085271317829458E-01	  0.0000000000000000E+00
  0.0000000000000000E+00	  4.1860465116279066E-01	  0.0000000000000000E+00
  0.0000000000000000E+00	  4.2635658914728680E-01	  0.0000000000000000E+00
  0.0000000000000000E+00	  4.3410852713178294E-01	  0.0000000000000000E+00
  0.0000000000000000E+00	  4.4186046511627908E-01	  0.0000000000000000E+00
  0.0000000000000000E+00	  4.4961240310077522E-01	  0.0000000000000000E+00
  0.0000000000000000E+00	  4.5736434108527130E-01	  0.0000000000000000E+00
  0.0000000000000000E+00	  4.6511627906976744E-01	  0.0000000000000000E+00
  0.0000000000000000E+00	  4.7286821705426357E-01	  0.0000000000000000E+00
  0.0000000000000000E+00	  4.8062015503875966E-01	  0.0000000000000000E+00
  0.0000000000000000E+00	  4.8837209302325579E-01	  0.0000000000000000E+00
  0.0000000000000000E+00	  4.9612403100775193E-01	  0.0000000000000000E+00
  0.0000000000000000E+00	  5.0387596899224807E-01	  0.0000000000000000E+00
  0.0000000000000000E+00	  5.1162790697674421E-01	  0.0000000000000000E+00
  0.0000000000000000E+00	  5.1937984496124034E-01	  0.0000000000000000E+00
  0.0000000000000000E+00	  5.2713178294573648E-01	  0.0000000000000000E+00
  0.0000000000000000E+00	  5.3488372093023251E-01	  0.0000000000000000E+00
  0.0000000000000000E+00	  5.4263565891472865E-01	  0.0000000000000000E+00
  0.0000000000000000E+00	  5.5038759689922478E-01	  0.0000000000000000E+00
  0.0000000000000000E+00	  5.5813953488372092E-01	  0.0000000000000000E+00
  0.0000000000000000E+00	  5.6589147286821706E-01	  0.0000000000000000E+00
  0.0000000000000000E+00	  5.7364341085271320E-01	  0.0000000000000000E+00
  0.0000000000000000E+00	  5.8139534883720934E-01	  0.0000000000000000E+00
  0.0000000000000000E+00	  5.8914728682170536E-01	  0.0000000000000000E+00
  0.0000000000000000E+00	  5.9689922480620150E-01	  0.0000000000000000E+00
  0.0000000000000000E+00	  6.0465116279069764E-01	  0.0000000000000000E+00
  0.0000000000000000E+00	  6.1240310077519378E-01	  0.0000000000000000E+00
  0.0000000000000000E+00	  6.2015503875968991E-01	  0.0000000000000000E+00
  0.0000000000000000E+00	  6.2790697674418605E-01	  0.0000000000000000E+00
  0.0000000000000000E+00	  6.3565891472868219E-01	  0.0000000000000000E+00
  0.0000000000000000E+00	  6.4341085271317833E-01	  0.0000000000000000E+00
  0.0000000000000000E+00	  6.5116279069767447E-01	  0.0000000000000000E+00
  0.0000000000000000E+00	  6.5891472868217049E-01	  0.0000000000000000E+00
  0.0000000000000000E+00	  6.6666666666666663E-01	  0.0000000000000000E+00
  0.0000000000000000E+00	  6.7441860465116277E-01	  0.0000000000000000E+00
  0.0000000000000000E+00	  6.8217054263565891E-01	  0.0000000000000000E+00
  0.0000000000000000E+00	  6.8992248062015504E-01	  0.0000000000000000E+00
  0.0000000000000000E+00	  6.9767441860465118E-01	  0.0000000000000000E+00
  0.0000000000000000E+00	  7.0542635658914732E-01	  0.0000000000000000E+00
  0.0000000000000000E+00	  7.1317829457364335E-01	  0.0000000000000000E+00
  0.0000000000000000E+00	  7.2093023255813948E-01	  0.0000000000000000E+00
  0.0000000000000000E+00	  7.2868217054263562E-01	  0.0000000000000000E+00
  0.0000000000000000E+00	  7.3643410852713176E-01	  0.0000000000000000E+00
  0.0000000000000000E+00	  7.4418604651162790E-01	  0.0000000000000000E+00
  0.0000000000000000E+00	  7.5193798449612403E-01	  0.0000000000000000E+00
  0.0000000000000000E+00	  7.5968992248062017E-01	  0.0000000000000000E+00
  0.0000000000000000E+00	  7.6744186046511631E-01	  0.0000000000000000E+00
  0.0000000000000000E+00	  7.7519379844961245E-01	  0.0000000000000000E+00
  0.0000000000000000E+00	  7.8294573643410847E-01	  0.0000000000000000E+00
  0.0000000000000000E+00	  7.9069767441860461E-01	  0.0000000000000000E+00
  0.0000000000000000E+00	  7.9844961240310075E-01	  0.0000000000000000E+00
  0.0000000000000000E+00	  8.0620155038759689E-01	  0.0000000000000000E+00
  0.0000000000000000E+00	  8.1395348837209303E-01	  0.0000000000000000E+00
  0.0000000000000000E+00	  8.2170542635658916E-01	  0.0000000000000000E+00
  0.0000000000000000E+00	  8.2945736434108530E-01	  0.0000000000000000E+00
  0.0000000000000000E+00	  8.3720930232558133E-01	  0.0000000000000000E+00
  0.0000000000000000E+00	  8.4496124031007747E-01	  0.0000000000000000E+00
  0.0000000000000000E+00	  8.5271317829457360E-01	  0.0000000000000000E+00
  0.0000000000000000E+00	  8.6046511627906974E-01	  0.0000000000000000E+00
  0.0000000000000000E+00	  8.6821705426356588E-01	  0.0000000000000000E+00
  0.0000000000000000E+00	  8.7596899224806202E-01	  0.0000000000000000E+00
  0.0000000000000000E+00	  8.8372093023255816E-01	  0.0000000000000000E+00
  0.0000000000000000E+00	  8.9147286821705429E-01	  0.0000000000000000E+00
  0.0000000000000000E+00	  8.9922480620155043E-01	  0.0000000000000000E+00
  0.0000000000000000E+00	  9.0697674418604646E-01	  0.0000000000000000E+00
  0.0000000000000000E+00	  9.1472868217054260E-01	  0.0000000000000000E+00
  0.0000000000000000E+00	  9.2248062015503873E-01	  0.0000000000000000E+00
  0.0000000000000000E+00	  9.3023255813953487E-01	  0.0000000000000000E+00
  0.0000000000000000E+00	  9.3798449612403101E-01	  0.0000000000000000E+00
  0.0000000000000000E+00	  9.4573643410852715E-01	  0.0000000000000000E+00
  0.0000000000000000E+00	  9.5348837209302328E-01	  0.0000000000000000E+00
  0.0000000000000000E+00	  9.6124031007751931E-01	  0.0000000000000000E+00
  0.0000000000000000E+00	  9.6899224806201545E-01	  0.0000000000000000E+00
  0.0000000000000000E+00	  9.7674418604651159E-01	  0.0000000000000000E+00
  0.0000000000000000E+00	  9.8449612403100772E-01	  0.0000000000000000E+00
  0.0000000000000000E+00	  9.9224806201550386E-01	  0.0000000000000000E+00
  0.0000000000000000E+00	  1.0000000000000000E+00	  0.0000000000000000E+00
  7.7519379844961239E-03	  0.0000000000000000E+00	  0.0000000000000000E+00
[...]
CELL_DATA 16641
SCALARS Vorticity double
LOOKUP_TABLE default
 -1.4064910341630638E-03
 -9.6635747364367235E-03
 -2.3891907465302245E-02
 -4.4506334003609177E-02
 -7.0044241144954569E-02
 -9.8643754844879181E-02
 -1.2853772396939925E-01
 -1.5817150354225484E-01
 -1.8619293559400657E-01
 -2.1140760169571238E-01
 -2.3273203539381415E-01
 -2.4915521192919257E-01
 -2.5971059969325377E-01
 -2.6345829319768882E-01
 -2.5947589293353374E-01
 -2.4685662472439648E-01
 -2.2471325113543769E-01
 -1.9218645627500788E-01
 -1.4845652407680490E-01
 -9.2757259454134669E-02
 -2.4391217295219886E-02
  5.7254592289713288E-02
  1.5269325909370729E-01
  2.6232343447250150E-01
  3.8641625636131105E-01
  5.2510420395107438E-01
  6.7837225558130920E-01
  8.4605162863670635E-01
  1.0278162846944625E+00
  1.2231822888836141E+00
  1.4315100218479666E+00
  1.6520091584205505E+00
  1.8837462515102008E+00
  2.1256546947581931E+00
  2.3765467846850590E+00
  2.6351275631367947E+00
  2.9000100940566957E+00
  3.1697318145846420E+00
  3.4427715983675999E+00
  3.7175671775268309E+00
  3.9925325874829563E+00
  4.2660753241549152E+00
  4.5366129342375432E+00
  4.8025887946693233E+00
  5.0624868754636401E+00
  5.3148453193661851E+00
  5.5582687110544393E+00
  5.7914389467270331E+00
  6.0131246510374785E+00
  6.2221891216833534E+00
  6.4175968120134064E+00
  6.5984183883646992E+00
  6.7638344212387329E+00
  6.9131377877500473E+00
  7.0457348770306405E+00
  7.1611457005501800E+00
  7.2590030158054635E+00
  7.3390505748089998E+00
  7.4011406085933373E+00
  7.4452306559211721E+00
  7.4713798389624140E+00
  7.4797446813033011E+00
  7.4705745547348155E+00
  7.4442068312753129E+00
  7.4010618062524074E+00
  7.3416374474223360E+00
  7.2665040144355935E+00
  7.1762985828286849E+00
  7.0717194974590374E+00
  6.9535207721864323E+00
  6.8225064458766580E+00
  6.6795248996472205E+00
  6.5254631368230642E+00
  6.3612410253972271E+00
  6.1878055029122923E+00
  6.0061247455470763E+00
  5.8171823067003992E+00
  5.6219712353397382E+00
  5.4214881905979304E+00
  5.2167275762734464E+00
  5.0086757266914761E+00
  4.7983051834533121E+00
  4.5865691105615563E+00
  4.3743959028804795E+00
  4.1626840495201263E+00
  3.9522973192142890E+00
  3.7440603388703360E+00
  3.5387546390923927E+00
  3.3371152416680778E+00
  3.1398278640378026E+00
  2.9475268152303835E+00
  2.7607936577151948E+00
  2.5801567118482320E+00
  2.4060914868457415E+00
  2.2390221386904754E+00
  2.0793240871217114E+00
  1.9273279792123692E+00
  1.7833252767569279E+00
  1.6475758816566450E+00
  1.5203184116526773E+00
  1.4017840113204671E+00
  1.2922149401279008E+00
  1.1918896246071107E+00
  1.1011563916327645E+00
  1.0204787032768721E+00
  9.5049537523572203E-01
  8.9209996696575955E-01
  8.4654427952270228E-01
  8.1557170220249442E-01
  8.0158704880693543E-01
  8.0787057312634636E-01
  8.3884510891207265E-01
  9.0040678906551130E-01
  1.0003316096847932E+00
  1.1487723702863830E+00
  1.3588638442347609E+00
  1.6474603415612585E+00
  2.0360443380739004E+00
  2.5518800140200577E+00
  3.2295678842965501E+00
  4.1133345190590580E+00
  5.2607236435122964E+00
  6.7487729908810516E+00
  8.6832746852691525E+00
  1.1204358434609349E+01
  1.4434475967589085E+01
  1.8014696344037063E+01
  1.7143875478547248E+01
 -5.8075869875543638E+01
 -9.6576151524902596E-03
 -2.1034666580462665E-02
 -3.2455008711920627E-02
 -4.6103330107230105E-02
 -6.2155504693442040E-02
 -7.9885430706246027E-02
 -9.8234779101558062E-02
 -1.1607496430088296E-01
 -1.3231407219406804E-01
 -1.4593165045417986E-01
 -1.5598266508653597E-01
 -1.6159029388469667E-01
 -1.6193657260218738E-01
 -1.5625476097546873E-01
 -1.4382481659395543E-01
 -1.2397217408167314E-01
 -9.6069467001250158E-02
 -5.9540586089284371E-02
 -1.3866387258595927E-02
  4.1408630085769310E-02
  1.0666929925715472E-01
  1.8222296161245280E-01
  2.6829329251353967E-01
  3.6501513167799310E-01
  4.7243057473464695E-01
  5.9048649070947634E-01
  7.1903354593338253E-01
  8.5782674071280451E-01
  1.0065274025670563E+00
  1.1647065297738837E+00
  1.3318493415893511E+00
  1.5073608664252651E+00
  1.6905723855496999E+00
  1.8807485461699402E+00
  2.0770949624102082E+00
  2.2787661338967919E+00
  2.4848735275722587E+00
  2.6944936872312222E+00
  2.9066762555399217E+00
  3.1204518136564072E+00
  3.3348394629760958E+00
  3.5488540912485416E+00
  3.7615132808809704E+00
  3.9718438304429835E+00
  4.1788878711982660E+00
  4.3817085690521109E+00
  4.5793954088653486E+00
  4.7710690629563457E+00
  4.9558858491282907E+00
  5.1330417860465882E+00
  5.3017762555471828E+00
  5.4613752827293558E+00
  5.6111744456674835E+00
  5.7505614273968195E+00
  5.8789782235625658E+00
  5.9959230197918281E+00
  6.1009517534347104E+00
  6.1936793747726471E+00
  6.2737808230379670E+00
  6.3409917325489245E+00
  6.3951088838619699E+00
  6.4359904140122826E+00
  6.4635557986092840E+00
  6.4777856167567247E+00
  6.4787211074887567E+00
  6.4664635236993808E+00
  6.4411732864727247E+00
  6.4030689394096383E+00
  6.3524258991374403E+00
  6.2895749948580661E+00
  6.2149007867307127E+00
  6.1288396503103124E+00
  6.0318776123913231E+00
  5.9245479226539608E+00
  5.8074283456804308E+00
  5.6811381593801054E+00
  5.5463348487759134E+00
  5.4037104885510683E+00
  5.2539878137663854E+00
  5.0979159856949172E+00
  4.9362660686671314E+00
  4.7698262439831787E+00
  4.5993967980609112E+00
  4.4257849337176518E+00
  4.2497994654523739E+00
  4.0722454714075571E+00
  3.8939189859715846E+00
  3.7156018274304090E+00
  3.5380566645291887E+00
  3.3620224343268941E+00
  3.1882102317265448E+00
  3.0172997994253472E+00
  2.8499367572685963E+00
  2.6867307244053831E+00
  2.5282545094105249E+00
  2.3750445766997630E+00
  2.2276030468196502E+00
  2.0864015583915987E+00
  1.9518874148178127E+00
  1.8244925617162757E+00
  1.7046460907642473E+00
  1.5927911371833583E+00
  1.4894072211752143E+00
  1.3950392620464422E+00
  1.3103346453469613E+00
  1.2360898196120325E+00
  1.1733079044013210E+00
  1.1232686590138434E+00
  1.0876118287895864E+00
  1.0684342642011000E+00
  1.0684001680546245E+00
  1.0908621838900039E+00
  1.1399885415462125E+00
  1.2208877983839572E+00
  1.3397174663386133E+00
  1.5037555407160008E+00
  1.7214040051272372E+00
  2.0020792830316574E+00
  2.3559214054120421E+00
  2.7932042015106862E+00
  3.3231949984712794E+00
  3.9517997539564553E+00
  4.6759695177883991E+00
  5.4680509855321517E+00
  6.2244048586761522E+00
  6.5629234751904990E+00
  4.7820924178229980E+00
 -9.5521794323798872E+00
 -9.0398790649581542E+01
 -2.3851023320347390E-02
 -3.2362219944833716E-02
 -3.8773828707158252E-02
 -4.5238957380802226E-02
 -5.2468018785069091E-02
 -6.0312597138790759E-02
 -6.8176394426384512E-02
 -7.5264840127380939E-02
 -8.0724027082288444E-02
 -8.3712811612389609E-02
 -8.3437411028676606E-02
 -7.9166172367200374E-02
 -7.0234581939787169E-02
 -5.6046016214204616E-02
 -3.6071085071479672E-02
 -9.8469083645817881E-03
  2.3023179931133168E-02
  6.2869464218511112E-02
  1.0995540867018197E-01
  1.6447722881359078E-01
  2.2656375997313441E-01
  2.9627686585429275E-01
  3.7361256164765938E-01
  4.5850294751734122E-01
  5.5081897120461898E-01
  6.5037397007729780E-01
  7.5692788780674392E-01
  8.7019202121235750E-01
  9.8983412913643198E-01
  1.1154837265891298E+00
  1.2467373919445379E+00
  1.3831639301697920E+00
  1.5243092581307414E+00
  1.6697009061156127E+00
  1.8188520602160152E+00
  1.9712651008043840E+00
  2.1264346211810414E+00
  2.2838499361346538E+00
  2.4429971117340554E+00
  2.6033605646416920E+00
  2.7644242914715509E+00
  2.9256727963667299E+00
  3.0865917884254719E+00
  3.2466687203934890E+00
  3.4053932367872388E+00
  3.5622575939757173E+00
  3.7167571073789012E+00
  3.8683906724524753E+00
  4.0166613970734737E+00
  4.1610773737978457E+00
  4.3011526116241132E+00
  4.4364081386779386E+00
  4.5663732798575216E+00
  4.6905871070976382E+00
  4.8086000545956864E+00
  4.9199756871066977E+00
  5.0242926062095794E+00
  5.1211464771807256E+00
  5.2101521576529688E+00
  5.2909459084299932E+00
  5.3631876664930420E+00
  5.4265633601948489E+00
  5.4807872467032697E+00
  5.5256042517626005E+00
  5.5607922916315360E+00
  5.5861645565076170E+00
  5.6015717337667947E+00
  5.6069041478824229E+00
  5.6020937919345482E+00
  5.5871162232222336E+00
  5.5619922927451091E+00
  5.5267896753756638E+00
  5.4816241646021870E+00
  5.4266606930336527E+00
  5.3621140377116561E+00
  5.2882491679911041E+00
  5.2053811936659793E+00
  5.1138748724633567E+00
  5.0141436393188883E+00
  4.9066481252464644E+00
  4.7918941413204976E+00
  4.6704301134071287E+00
  4.5428439658058490E+00
  4.4097594667686790E+00
  4.2718320656978177E+00
  4.1297442703184695E+00
  3.9842006318294296E+00
  3.8359224264624388E+00
  3.6856421425838497E+00
  3.5340979031407307E+00
  3.3820279738447017E+00
  3.2301655283539588E+00
  3.0792338637173007E+00
  2.9299422838817644E+00
  2.7829828979499118E+00
  2.6390286149599858E+00
  2.4987326594699266E+00
  2.3627299817393763E+00
  2.2316409895896094E+00
  2.1060780789187814E+00
  1.9866554745990439E+00
  1.8740028968309010E+00
  1.7687835202151856E+00
  1.6717165720510709E+00
  1.5836047000054685E+00
  1.5053659031387252E+00
  1.4380693349704772E+00
  1.3829736110100230E+00
  1.3415653213142893E+00
  1.3155941624378924E+00
  1.3070993205649561E+00
  1.3184192681639382E+00
  1.3521737374816789E+00
  1.4112019935233411E+00
  1.4984351907151672E+00
  1.6166717131846067E+00
  1.7682110138854239E+00
  1.9542785884289411E+00
  2.1741291697732894E+00
  2.4236116647363199E+00
  2.6927198448852430E+00
  2.9609483102654304E+00
  3.1871793662685732E+00
  3.2837881212589748E+00
  3.0366762327121108E+00
  1.7961483435834036E+00
 -3.0376964333401522E+00
 -2.3535094566414056E+01
 -9.4729095406783983E+01
 -4.4330547019662193E-02
 -4.5806622363763289E-02
 -4.5041395178516359E-02
 -4.3567497657271401E-02
 -4.2051108388492617E-02
 -4.0525247861199667E-02
 -3.8625500635854182E-02
 -3.5772017297701270E-02
 -3.1293563894150313E-02
 -2.4505862203455773E-02
 -1.4758214625796231E-02
 -1.4596129322464394E-03
  1.5907827378913567E-02
  3.7782993387207600E-02
  6.4524289373018615E-02
  9.6410663466393889E-02
  1.3364409992058551E-01
  1.7635304000487814E-01
  2.2459648815502184E-01
  2.7836871074845498E-01
  3.3760449357234823E-01
  4.0218492687856505E-01
  4.7194365980721148E-01
  5.4667352731688468E-01
  6.2613341512164078E-01
  7.1005519932705219E-01
  7.9815058154303353E-01
  8.9011763839237412E-01
  9.8564691560050355E-01
  1.0844269189539730E+00
  1.1861488843391730E+00
  1.2905107435981307E+00
  1.3972202390217001E+00
  1.5059971743334370E+00
  1.6165748219670739E+00
  1.7287005338952579E+00
  1.8421356254103818E+00
  1.9566546177928419E+00
  2.0720439368485692E+00
  2.1881001702836205E+00
  2.3046279884362972E+00
  2.4214378307407576E+00
  2.5383434552151898E+00
  2.6551594409921626E+00
  2.7716987251154777E+00
  2.8877702451089902E+00
  3.0031767486768648E+00
  3.1177128217268724E+00
  3.2311631760366359E+00
  3.3433012285481012E+00
  3.4538879956524067E+00
  3.5626713180346314E+00
  3.6693854247583544E+00
  3.7737508393181205E+00
  3.8754746253761563E+00
  3.9742509658027885E+00
  4.0697620654082947E+00
  4.1616793653154964E+00
  4.2496650551847850E+00
  4.3333738683551486E+00
  4.4124551442775779E+00
  4.4865551422471865E+00
  4.5553195902319077E+00
  4.6183964523844319E+00
  4.6754388984423212E+00
  4.7261084575034031E+00
  4.7700783374529756E+00
  4.8070368894767546E+00
  4.8366911945057725E+00
  4.8587707450295055E+00
  4.8730311914512647E+00
  4.8792581170720233E+00
  4.8772707999694633E+00
  4.8669259136580676E+00
  4.8481211117252752E+00
  4.8207984349744510E+00
  4.7849474733865316E+00
  4.7406082099310956E+00
  4.6878734694651385E+00
  4.6268908942399856E+00
  4.5578643684832789E+00
  4.4810548186901009E+00
  4.3967803241249284E+00
  4.3054154839647705E+00
  4.2073900037039316E+00
  4.1031864839034187E+00
  3.9933374189111106E+00
  3.8784214414205831E+00
  3.7590588801502576E+00
  3.6359067319207479E+00
  3.5096531854494510E+00
  3.3810118719079978E+00
  3.2507160566112145E+00
  3.1195130272854272E+00
  2.9881589773622075E+00
  2.8574147272390893E+00
  2.7280426704317389E+00
  2.6008053700483860E+00
  2.4764662546564682E+00
  2.3557928564898885E+00
  2.2395629786471685E+00
  2.1285740471550598E+00
  2.0236556737878377E+00
  1.9256851058233262E+00
  1.8356047574255665E+00
  1.7544404020545472E+00
  1.6833178610130253E+00
  1.6234751526116316E+00
  1.5762660565205406E+00
  1.5431498552759924E+00
  1.5256605526043769E+00
  1.5253469925484415E+00
  1.5436727871763427E+00
  1.5818614136778100E+00
  1.6406664906818675E+00
  1.7200383846998837E+00
  1.8186420042770624E+00
  1.9331477336345044E+00
  2.0571461349284408E+00
  2.1793735509340650E+00
  2.2805383096830600E+00
  2.3269932591895501E+00
  2.2564499631605415E+00
  1.9407195440557947E+00
  1.0706205777692834E+00
 -1.2695019345157523E+00
 -8.3486786969156075E+00
 -3.1442336257290055E+01
 -9.2118788726684386E+01
 -6.9537138549797359E-02
 -6.1552093938559566E-02
 -5.2068620701001329E-02
 -4.1945309783823270E-02
 -3.1581084493510624E-02
 -2.0972354263901111E-02
 -9.8265299802473092E-03
  2.3235472558719296E-03
  1.6026086473927215E-02
  3.1842003174508859E-02
  5.0298784322432392E-02
  7.1861608629358059E-02
  9.6916992652261530E-02
  1.2576516376684685E-01
  1.5861835876465816E-01
  1.9560308728430817E-01
  2.3676503452581385E-01
  2.8207572512722273E-01
  3.3144036617431905E-01
  3.8470647016766102E-01
  4.4167296231843262E-01
  5.0209952893067278E-01
  5.6571598696144754E-01
  6.3223146544017905E-01
  7.0134319828688252E-01
  7.7274474164411033E-01
  8.4613344990550088E-01
  9.2121707326176283E-01
  9.9771937411796507E-01
  1.0753846975767103E+00
  1.1539814695019357E+00
  1.2333046318898750E+00
  1.3131770573243695E+00
  1.3934500107993235E+00
  1.4740027474455355E+00
  1.5547413485978829E+00
  1.6355969065543916E+00
  1.7165231710176287E+00
  1.7974937684732504E+00
  1.8784991006276630E+00
  1.9595430204550413E+00
  2.0406393752662422E+00
  2.1218084962559427E+00
  2.2030737038131512E+00
  2.2844578879531157E+00
  2.3659802138705679E+00
  2.4476529940347236E+00
  2.5294787605609974E+00
  2.6114475648466731E+00
  2.6935345256402710E+00
  2.7756976417861923E+00
  2.8578758817872747E+00
  2.9399875589898157E+00
  3.0219289985485971E+00
  3.1035735003067568E+00
  3.1847706002645082E+00
  3.2653456323529904E+00
  3.3450995917179940E+00
  3.4238093005942951E+00
  3.5012278780511621E+00
  3.5770855153403391E+00
  3.6510905591938552E+00
  3.7229309060988482E+00
  3.7922757112007672E+00
  3.8587774159160526E+00
  3.9220740984135101E+00
  3.9817921506761227E+00
  4.0375492846960750E+00
  4.0889578682935221E+00
  4.1356285878961456E+00
  4.1771744311993011E+00
  4.2132149768033118E+00
  4.2433809706007022E+00
  4.2673191598342202E+00
  4.2846973454264212E+00
  4.2952096015616075E+00
  4.2985815988760923E+00
  4.2945759544196163E+00
  4.2829975183750717E+00
  4.2636984950988319E+00
  4.2365832852367618E+00
  4.2016129274534704E+00
  4.1588090137176454E+00
  4.1082569521502537E+00
  4.0501084571322865E+00
  3.9845831585067910E+00
  3.9119692408983959E+00
  3.8326230507343384E+00
  3.7469676424923644E+00
  3.6554902767226398E+00
  3.5587389299314505E+00
  3.4573179297268610E+00
  3.3518828868351269E+00
  3.2431351576502010E+00
  3.1318161353645979E+00
  3.0187017317997826E+00
  2.9045974708588624E+00
  2.7903346592104605E+00
  2.6767681159256806E+00
  2.5647759091838389E+00
  2.4552614375142210E+00
  2.3491579749592981E+00
  2.2474354467212465E+00
  2.1511086985597863E+00
  2.0612458739263575E+00
  1.9789747474928112E+00
  1.9054840358687104E+00
  1.8420158813926326E+00
  1.7898449391958546E+00
  1.7502388097230777E+00
  1.7243938944529620E+00
  1.7133399371028608E+00
  1.7178051627854685E+00
  1.7380312574520000E+00
  1.7735218172039007E+00
  1.8226959407097250E+00
  1.8823931400662257E+00
  1.9471212940348150E+00
  2.0078220618063387E+00
  2.0496693497393732E+00
  2.0478172745439438E+00
  1.9585121711459430E+00
  1.6987740913844334E+00
  1.0944146721177104E+00
 -2.7216832103181060E-01
 -3.5645677085818384E+00
 -1.2341714104809158E+01
 -3.6132803584008926E+01
 -8.7437338311252148E+01
 -9.7519171751484154E-02
 -7.8920182556448212E-02
 -5.9860745471750715E-02
 -4.0646896259976771E-02
 -2.1371338647268343E-02
 -1.9020256250617837E-03
  1.8072300766972270E-02
  3.8976571898248845E-02
  6.1285250165796855E-02
  8.5469270501451561E-02
  1.1195678825890987E-01
  1.4110698801454455E-01
  1.7319483760810314E-01
  2.0840439301841321E-01
  2.4682847041245062E-01
  2.8847288035232949E-01
  3.3326381013883571E-01
  3.8105727818508556E-01
  4.3164984995311645E-01
  4.8479000152241314E-01
  5.4018965705878619E-01
  5.9753552575628621E-01
  6.5649993661226080E-01
  7.1675092712463129E-01
  7.7796139256806485E-01
  8.3981715040228988E-01
  9.0202382130350789E-01
  9.6431247406060250E-01
  1.0264440248187616E+00
  1.0882124201848447E+00
  1.1494466669793793E+00
  1.2100117978405962E+00
  1.2698088809625692E+00
  1.3287741940758391E+00
  1.3868776879380083E+00
  1.4441208640244587E+00
  1.5005341859227492E+00
  1.5561741353260854E+00
  1.6111200126320084E+00
  1.6654705700003751E+00
  1.7193405521625498E+00
  1.7728572079717262E+00
  1.8261568241332156E+00
  1.8793813220813667E+00
  1.9326749497660662E+00
  1.9861810922549838E+00
  2.0400392185427192E+00
  2.0943819767207734E+00
  2.1493324456015976E+00
  2.2050015478846241E+00
  2.2614856278746314E+00
  2.3188641954887457E+00
  2.3771978377035521E+00
  2.4365262985976397E+00
  2.4968667296523623E+00
  2.5582121129148523E+00
  2.6205298609462782E+00
  2.6837605991297582E+00
  2.7478171378583713E+00
  2.8125836443292678E+00
  2.8779150260978970E+00
  2.9436365411523560E+00
  3.0095436519944521E+00
  3.0754021439855075E+00
  3.1409485309316740E+00
  3.2058907734179996E+00
  3.2699093375926926E+00
  3.3326586237593099E+00
  3.3937687950264310E+00
  3.4528480361318050E+00
  3.5094852711149027E+00
  3.5632533654565450E+00
  3.6137128333341622E+00
  3.6604160634730598E+00
  3.7029120674699056E+00
  3.7407517422629653E+00
  3.7734936235750660E+00
  3.8007100897610280E+00
  3.8219939558414993E+00
  3.8369653761140965E+00
  3.8452789513651391E+00
  3.8466309143895834E+00
  3.8407662465485504E+00
  3.8274855599655924E+00
  3.8066515663653591E+00
  3.7781949462544171E+00
  3.7421194328672209E+00
  3.6985059356274372E+00
  3.6475155490965876E+00
  3.5893913263867132E+00
  3.5244587412010566E+00
  3.4531248198900939E+00
  3.3758759934222495E+00
  3.2932747974950574E+00
  3.2059556346247122E+00
  3.1146199006681616E+00
  3.0200308626060903E+00
  2.9230087426271161E+00
  2.8244264971472539E+00
  2.7252067521942100E+00
  2.6263202354588500E+00
  2.5287857943948340E+00
  2.4336716789577526E+00
  2.3420971850248873E+00
  2.2552330200395181E+00
  2.1742979271917120E+00
  2.1005482907586561E+00
  2.0352567706428983E+00
  1.9796755975977607E+00
  1.9349800604964555E+00
  1.9021878600811910E+00
  1.8820500827458790E+00
  1.8749088478908809E+00
  1.8805137402502923E+00
  1.8977810475139101E+00
  1.9244608104904617E+00
  1.9566352228518444E+00
  1.9878846740807454E+00
  2.0077763576809695E+00
  1.9989492484828284E+00
  1.9312366227081725E+00
  1.7493069537877970E+00
  1.3451533957185562E+00
  4.9147991073722991E-01
 -1.3372580101896361E+00
 -5.4812259414574322E+00
 -1.5460278901392622E+01
 -3.8915140047008819E+01
 -8.2295349674814432E+01
 -1.2646495973462285E-01
 -9.6947654802045438E-02
 -6.8018081918002307E-02
 -3.9579529529255350E-02
 -1.1457240656171893E-02
  1.6628271490344012E-02
  4.5046451970254107E-02
  7.4220607449643788E-02
  1.0458590303167187E-01
  1.3655089672434925E-01
  1.7046720380773298E-01
  2.0660866672911124E-01
  2.4515957514451617E-01
  2.8621060926492686E-01
  3.2976089416884879E-01
  3.7572458655948487E-01
  4.2394059832787395E-01
  4.7418429359786535E-01
  5.2618022500579797E-01
  5.7961517740471724E-01
  6.3415095652753151E-01
  6.8943649863666012E-01
  7.4511899047366270E-01