# vtk DataFile Version 3.0
VTK datafile generated by Trushant
ASCII
DATASET UNSTRUCTURED_GRID
POINTS 550 double
  5.0000000000000000E+00	  0.0000000000000000E+00	  0.0000000000000000E+00
  4.9605735065723895E+00	  6.2666616782152129E-01	  0.0000000000000000E+00
  4.8429158056431554E+00	  1.2434494358242740E+00	  0.0000000000000000E+00
  4.6488824294412572E+00	  1.8406227634233896E+00	  0.0000000000000000E+00
  4.3815334002193183E+00	  2.4087683705085765E+00	  0.0000000000000000E+00
  4.0450849718747373E+00	  2.9389262614623659E+00	  0.0000000000000000E+00
  3.6448431371070580E+00	  3.4227355296434432E+00	  0.0000000000000000E+00
  3.1871199487434483E+00	  3.8525662138789460E+00	  0.0000000000000000E+00
  2.6791339748949827E+00	  4.2216396275100756E+00	  0.0000000000000000E+00
  2.1288964578253635E+00	  4.5241352623300983E+00	  0.0000000000000000E+00
  1.5450849718747373E+00	  4.7552825814757673E+00	  0.0000000000000000E+00
  9.3690657292862367E-01	  4.9114362536434433E+00	  0.0000000000000000E+00
  3.1395259764656763E-01	  4.9901336421413580E+00	  0.0000000000000000E+00
 -3.1395259764656702E-01	  4.9901336421413580E+00	  0.0000000000000000E+00
 -9.3690657292862412E-01	  4.9114362536434433E+00	  0.0000000000000000E+00
 -1.5450849718747368E+00	  4.7552825814757682E+00	  0.0000000000000000E+00
 -2.1288964578253635E+00	  4.5241352623300974E+00	  0.0000000000000000E+00
 -2.6791339748949823E+00	  4.2216396275100756E+00	  0.0000000000000000E+00
 -3.1871199487434487E+00	  3.8525662138789460E+00	  0.0000000000000000E+00
 -3.6448431371070567E+00	  3.4227355296434441E+00	  0.0000000000000000E+00
 -4.0450849718747364E+00	  2.9389262614623664E+00	  0.0000000000000000E+00
 -4.3815334002193183E+00	  2.4087683705085761E+00	  0.0000000000000000E+00
 -4.6488824294412563E+00	  1.8406227634233907E+00	  0.0000000000000000E+00
 -4.8429158056431554E+00	  1.2434494358242740E+00	  0.0000000000000000E+00
 -4.9605735065723886E+00	  6.2666616782152262E-01	  0.0000000000000000E+00
 -5.0000000000000000E+00	  6.1232339957367663E-16	  0.0000000000000000E+00
 -4.9605735065723895E+00	 -6.2666616782152140E-01	  0.0000000000000000E+00
 -4.8429158056431554E+00	 -1.2434494358242751E+00	  0.0000000000000000E+00
 -4.6488824294412563E+00	 -1.8406227634233916E+00	  0.0000000000000000E+00
 -4.3815334002193174E+00	 -2.4087683705085770E+00	  0.0000000000000000E+00
 -4.0450849718747381E+00	 -2.9389262614623650E+00	  0.0000000000000000E+00
 -3.6448431371070589E+00	 -3.4227355296434419E+00	  0.0000000000000000E+00
 -3.1871199487434474E+00	 -3.8525662138789469E+00	  0.0000000000000000E+00
 -2.6791339748949854E+00	 -4.2216396275100738E+00	  0.0000000000000000E+00
 -2.1288964578253649E+00	 -4.5241352623300966E+00	  0.0000000000000000E+00
 -1.5450849718747377E+00	 -4.7552825814757673E+00	  0.0000000000000000E+00
 -9.3690657292862312E-01	 -4.9114362536434433E+00	  0.0000000000000000E+00
 -3.1395259764656602E-01	 -4.9901336421413580E+00	  0.0000000000000000E+00
  3.1395259764656414E-01	 -4.9901336421413580E+00	  0.0000000000000000E+00
  9.3690657292862134E-01	 -4.9114362536434433E+00	  0.0000000000000000E+00
  1.5450849718747361E+00	 -4.7552825814757682E+00	  0.0000000000000000E+00
  2.1288964578253591E+00	 -4.5241352623300992E+00	  0.0000000000000000E+00
  2.6791339748949836E+00	 -4.2216396275100747E+00	  0.0000000000000000E+00
  3.1871199487434501E+00	 -3.8525662138789452E+00	  0.0000000000000000E+00
  3.6448431371070562E+00	 -3.4227355296434450E+00	  0.0000000000000000E+00
  4.0450849718747364E+00	 -2.9389262614623668E+00	  0.0000000000000000E+00
  4.3815334002193183E+00	 -2.4087683705085765E+00	  0.0000000000000000E+00
  4.6488824294412590E+00	 -1.8406227634233852E+00	  0.0000000000000000E+00
  4.8429158056431545E+00	 -1.2434494358242767E+00	  0.0000000000000000E+00
  4.9605735065723886E+00	 -6.2666616782152329E-01	  0.0000000000000000E+00
  4.7000000000000002E+00	  0.0000000000000000E+00	  0.0000000000000000E+00
  4.6629390961780466E+00	  5.8906619775223001E-01	  0.0000000000000000E+00
  4.5523408573045661E+00	  1.1688424696748176E+00	  0.0000000000000000E+00
  4.3699494836747821E+00	  1.7301853976179862E+00	  0.0000000000000000E+00
  4.1186413962061588E+00	  2.2642422682780623E+00	  0.0000000000000000E+00
  3.8023798735622534E+00	  2.7625906857746236E+00	  0.0000000000000000E+00
  3.4261525488806344E+00	  3.2173713978648366E+00	  0.0000000000000000E+00
  2.9958927518188414E+00	  3.6214122410462095E+00	  0.0000000000000000E+00
  2.5183859364012839E+00	  3.9683412498594710E+00	  0.0000000000000000E+00
  2.0011626703558414E+00	  4.2526871465902918E+00	  0.0000000000000000E+00
  1.4523798735622531E+00	  4.4699656265872214E+00	  0.0000000000000000E+00
  8.8069217855290627E-01	  4.6167500784248370E+00	  0.0000000000000000E+00
  2.9511544178777360E-01	  4.6907256236128765E+00	  0.0000000000000000E+00
 -2.9511544178777299E-01	  4.6907256236128765E+00	  0.0000000000000000E+00
 -8.8069217855290671E-01	  4.6167500784248370E+00	  0.0000000000000000E+00
 -1.4523798735622526E+00	  4.4699656265872223E+00	  0.0000000000000000E+00
 -2.0011626703558418E+00	  4.2526871465902918E+00	  0.0000000000000000E+00
 -2.5183859364012835E+00	  3.9683412498594715E+00	  0.0000000000000000E+00
 -2.9958927518188418E+00	  3.6214122410462095E+00	  0.0000000000000000E+00
 -3.4261525488806335E+00	  3.2173713978648375E+00	  0.0000000000000000E+00
 -3.8023798735622525E+00	  2.7625906857746245E+00	  0.0000000000000000E+00
 -4.1186413962061588E+00	  2.2642422682780614E+00	  0.0000000000000000E+00
 -4.3699494836747812E+00	  1.7301853976179873E+00	  0.0000000000000000E+00
 -4.5523408573045661E+00	  1.1688424696748176E+00	  0.0000000000000000E+00
 -4.6629390961780457E+00	  5.8906619775223135E-01	  0.0000000000000000E+00
 -4.7000000000000002E+00	  5.7558399559925606E-16	  0.0000000000000000E+00
 -4.6629390961780466E+00	 -5.8906619775223013E-01	  0.0000000000000000E+00
 -4.5523408573045661E+00	 -1.1688424696748185E+00	  0.0000000000000000E+00
 -4.3699494836747812E+00	 -1.7301853976179882E+00	  0.0000000000000000E+00
 -4.1186413962061588E+00	 -2.2642422682780623E+00	  0.0000000000000000E+00
 -3.8023798735622538E+00	 -2.7625906857746232E+00	  0.0000000000000000E+00
 -3.4261525488806353E+00	 -3.2173713978648357E+00	  0.0000000000000000E+00
 -2.9958927518188410E+00	 -3.6214122410462100E+00	  0.0000000000000000E+00
 -2.5183859364012866E+00	 -3.9683412498594701E+00	  0.0000000000000000E+00
 -2.0011626703558427E+00	 -4.2526871465902909E+00	  0.0000000000000000E+00
 -1.4523798735622535E+00	 -4.4699656265872214E+00	  0.0000000000000000E+00
 -8.8069217855290582E-01	 -4.6167500784248370E+00	  0.0000000000000000E+00
 -2.9511544178777210E-01	 -4.6907256236128765E+00	  0.0000000000000000E+00
  2.9511544178777033E-01	 -4.6907256236128765E+00	  0.0000000000000000E+00
  8.8069217855290405E-01	 -4.6167500784248370E+00	  0.0000000000000000E+00
  1.4523798735622520E+00	 -4.4699656265872223E+00	  0.0000000000000000E+00
  2.0011626703558378E+00	 -4.2526871465902936E+00	  0.0000000000000000E+00
  2.5183859364012848E+00	 -3.9683412498594706E+00	  0.0000000000000000E+00
  2.9958927518188432E+00	 -3.6214122410462086E+00	  0.0000000000000000E+00
  3.4261525488806330E+00	 -3.2173713978648384E+00	  0.0000000000000000E+00
  3.8023798735622525E+00	 -2.7625906857746250E+00	  0.0000000000000000E+00
  4.1186413962061588E+00	 -2.2642422682780623E+00	  0.0000000000000000E+00
  4.3699494836747839E+00	 -1.7301853976179822E+00	  0.0000000000000000E+00
  4.5523408573045661E+00	 -1.1688424696748201E+00	  0.0000000000000000E+00
  4.6629390961780457E+00	 -5.8906619775223190E-01	  0.0000000000000000E+00
  4.4000000000000004E+00	  0.0000000000000000E+00	  0.0000000000000000E+00
  4.3653046857837028E+00	  5.5146622768293874E-01	  0.0000000000000000E+00
  4.2617659089659767E+00	  1.0942355035253613E+00	  0.0000000000000000E+00
  4.0910165379083070E+00	  1.6197480318125830E+00	  0.0000000000000000E+00
  3.8557493921930002E+00	  2.1197161660475476E+00	  0.0000000000000000E+00
  3.5596747752497691E+00	  2.5862551100868818E+00	  0.0000000000000000E+00
  3.2074619606542112E+00	  3.0120072660862300E+00	  0.0000000000000000E+00
  2.8046655548942345E+00	  3.3902582682134730E+00	  0.0000000000000000E+00
  2.3576378979075852E+00	  3.7150428722088664E+00	  0.0000000000000000E+00
  1.8734288828863199E+00	  3.9812390308504866E+00	  0.0000000000000000E+00
  1.3596747752497689E+00	  4.1846486716986755E+00	  0.0000000000000000E+00
  8.2447778417718887E-01	  4.3220639032062298E+00	  0.0000000000000000E+00
  2.7627828592897952E-01	  4.3913176050843949E+00	  0.0000000000000000E+00
 -2.7627828592897902E-01	  4.3913176050843949E+00	  0.0000000000000000E+00
 -8.2447778417718931E-01	  4.3220639032062298E+00	  0.0000000000000000E+00
 -1.3596747752497684E+00	  4.1846486716986764E+00	  0.0000000000000000E+00
 -1.8734288828863201E+00	  3.9812390308504861E+00	  0.0000000000000000E+00
 -2.3576378979075847E+00	  3.7150428722088673E+00	  0.0000000000000000E+00
 -2.8046655548942350E+00	  3.3902582682134730E+00	  0.0000000000000000E+00
 -3.2074619606542103E+00	  3.0120072660862309E+00	  0.0000000000000000E+00
 -3.5596747752497686E+00	  2.5862551100868827E+00	  0.0000000000000000E+00
 -3.8557493921930002E+00	  2.1197161660475472E+00	  0.0000000000000000E+00
 -4.0910165379083061E+00	  1.6197480318125839E+00	  0.0000000000000000E+00
 -4.2617659089659767E+00	  1.0942355035253613E+00	  0.0000000000000000E+00
 -4.3653046857837028E+00	  5.5146622768293996E-01	  0.0000000000000000E+00
 -4.4000000000000004E+00	  5.3884459162483550E-16	  0.0000000000000000E+00
 -4.3653046857837028E+00	 -5.5146622768293896E-01	  0.0000000000000000E+00
 -4.2617659089659767E+00	 -1.0942355035253621E+00	  0.0000000000000000E+00
 -4.0910165379083061E+00	 -1.6197480318125848E+00	  0.0000000000000000E+00
 -3.8557493921929997E+00	 -2.1197161660475476E+00	  0.0000000000000000E+00
 -3.5596747752497695E+00	 -2.5862551100868814E+00	  0.0000000000000000E+00
[...]
CELL_DATA 500
SCALARS Temperature double
LOOKUP_TABLE default
  9.5893872626474405E+01
  9.5893872626819800E+01
  9.5893872627155247E+01
  9.5893872627480107E+01
  9.5893872627793897E+01
  9.5893872628096190E+01
  9.5893872628386859E+01
  9.5893872628665946E+01
  9.5893872628933579E+01
  9.5893872629190199E+01
  9.5893872629436260E+01
  9.5893872629672458E+01
  9.5893872629899604E+01
  9.5893872630118707E+01
  9.5893872630330762E+01
  9.5893872630536990E+01
  9.5893872630738656E+01
  9.5893872630937054E+01
  9.5893872631133533E+01
  9.5893872631329486E+01
  9.5893872631526335E+01
  9.5893872631725387E+01
  9.5893872631928005E+01
  9.5893872632135512E+01
  9.5893872632349002E+01
  9.5893872632569554E+01
  9.5893872632798207E+01
  9.5893872633035770E+01
  9.5893872633282939E+01
  9.5893872633540298E+01
  9.5893872633808186E+01
  9.5893872634086819E+01
  9.5893872634376265E+01
  9.5893872634676327E+01
  9.5893872634986693E+01
  9.5893872635306906E+01
  9.5893872635636257E+01
  9.5893872635973949E+01
  9.5893872636319102E+01
  9.5893872636670565E+01
  9.5893872637027215E+01
  9.5893872637387815E+01
  9.5893872637751002E+01
  9.5893872638115397E+01
  9.5893872638479650E+01
  9.5893872638842353E+01
  9.5893872639202158E+01
  9.5893872639557713E+01
  9.5893872639907840E+01
  9.5893872640251359E+01
  9.1525652048997998E+01
  9.1525652049669262E+01
  9.1525652050321241E+01
  9.1525652050952743E+01
  9.1525652051562673E+01
  9.1525652052150392E+01
  9.1525652052715571E+01
  9.1525652053258312E+01
  9.1525652053778870E+01
  9.1525652054278069E+01
  9.1525652054756847E+01
  9.1525652055216540E+01
  9.1525652055658696E+01
  9.1525652056085292E+01
  9.1525652056498302E+01
  9.1525652056900014E+01
  9.1525652057292930E+01
  9.1525652057679551E+01
  9.1525652058062519E+01
  9.1525652058444493E+01
  9.1525652058828214E+01
  9.1525652059216284E+01
  9.1525652059611318E+01
  9.1525652060015773E+01
  9.1525652060431852E+01
  9.1525652060861688E+01
  9.1525652061307255E+01
  9.1525652061770089E+01
  9.1525652062251581E+01
  9.1525652062752798E+01
  9.1525652063274450E+01
  9.1525652063816921E+01
  9.1525652064380267E+01
  9.1525652064964206E+01
  9.1525652065568153E+01
  9.1525652066191071E+01
  9.1525652066831725E+01
  9.1525652067488480E+01
  9.1525652068159658E+01
  9.1525652068843044E+01
  9.1525652069536463E+01
  9.1525652070237413E+01
  9.1525652070943366E+01
  9.1525652071651649E+01
  9.1525652072359549E+01
  9.1525652073064450E+01
  9.1525652073763709E+01
  9.1525652074454712E+01
  9.1525652075135113E+01
  9.1525652075802711E+01
  8.6859598299863478E+01
  8.6859598300820082E+01
  8.6859598301749315E+01
  8.6859598302649417E+01
  8.6859598303518908E+01
  8.6859598304356808E+01
  8.6859598305162763E+01
  8.6859598305936785E+01
  8.6859598306679374E+01
  8.6859598307391593E+01
  8.6859598308074865E+01
  8.6859598308731051E+01
  8.6859598309362426E+01
  8.6859598309971688E+01
  8.6859598310561765E+01
  8.6859598311135855E+01
  8.6859598311697482E+01
  8.6859598312250242E+01
  8.6859598312797885E+01
  8.6859598313344179E+01
  8.6859598313893031E+01
  8.6859598314448121E+01
  8.6859598315013173E+01
  8.6859598315591612E+01
  8.6859598316186663E+01
  8.6859598316801282E+01
  8.6859598317438255E+01
  8.6859598318099799E+01
  8.6859598318787874E+01
  8.6859598319503959E+01
  8.6859598320249063E+01
  8.6859598321023768E+01
  8.6859598321828059E+01
  8.6859598322661583E+01
  8.6859598323523485E+01
  8.6859598324412246E+01
  8.6859598325326175E+01
  8.6859598326262969E+01
  8.6859598327220084E+01
  8.6859598328194551E+01
  8.6859598329183157E+01
  8.6859598330182394E+01
  8.6859598331188650E+01
  8.6859598332198132E+01
  8.6859598333207060E+01
  8.6859598334211597E+01
  8.6859598335208034E+01
  8.6859598336192732E+01
  8.6859598337162325E+01
  8.6859598338113670E+01
  8.1852126048303333E+01
  8.1852126049484809E+01
  8.1852126050632563E+01
  8.1852126051744406E+01
  8.1852126052818605E+01
  8.1852126053853937E+01
  8.1852126054849990E+01
  8.1852126055806735E+01
  8.1852126056724856E+01
  8.1852126057605645E+01
  8.1852126058450850E+01
  8.1852126059262801E+01
  8.1852126060044327E+01
  8.1852126060798710E+01
  8.1852126061529546E+01
  8.1852126062240828E+01
  8.1852126062936861E+01
  8.1852126063622094E+01
  8.1852126064301089E+01
  8.1852126064978563E+01
  8.1852126065659235E+01
  8.1852126066347680E+01
  8.1852126067048445E+01
  8.1852126067765752E+01
  8.1852126068503580E+01
  8.1852126069265594E+01
  8.1852126070055121E+01
  8.1852126070874931E+01
  8.1852126071727398E+01
  8.1852126072614325E+01
  8.1852126073536965E+01
  8.1852126074495956E+01
  8.1852126075491356E+01
  8.1852126076522680E+01
  8.1852126077588807E+01
  8.1852126078687988E+01
  8.1852126079818035E+01
  8.1852126080976134E+01
  8.1852126082159117E+01
  8.1852126083363387E+01
  8.1852126084584910E+01
  8.1852126085819435E+01
  8.1852126087062459E+01
  8.1852126088309362E+01
  8.1852126089555469E+01
  8.1852126090796077E+01
  8.1852126092026651E+01
  8.1852126093242717E+01
  8.1852126094440081E+01
  8.1852126095614906E+01
  7.6449327116926256E+01
  7.6449327118253876E+01
  7.6449327119543767E+01
  7.6449327120793427E+01
  7.6449327122000923E+01
  7.6449327123164977E+01
  7.6449327124285020E+01
  7.6449327125361151E+01
  7.6449327126394081E+01
  7.6449327127385317E+01
  7.6449327128336748E+01
  7.6449327129251088E+01
  7.6449327130131451E+01
  7.6449327130981544E+01
  7.6449327131805390E+01
  7.6449327132607479E+01
  7.6449327133392600E+01
  7.6449327134165728E+01
  7.6449327134932034E+01
  7.6449327135696748E+01
  7.6449327136465158E+01
  7.6449327137242378E+01
  7.6449327138033468E+01
  7.6449327138843145E+01
  7.6449327139675887E+01
  7.6449327140535786E+01
  7.6449327141426508E+01
  7.6449327142351166E+01
  7.6449327143312431E+01
  7.6449327144312235E+01
  7.6449327145351972E+01
  7.6449327146432367E+01
  7.6449327147553461E+01
  7.6449327148714701E+01
  7.6449327149914794E+01
  7.6449327151151834E+01
  7.6449327152423280E+01
  7.6449327153726045E+01
  7.6449327155056523E+01
  7.6449327156410661E+01
  7.6449327157783969E+01
  7.6449327159171716E+01
  7.6449327160568842E+01
  7.6449327161970174E+01
  7.6449327163370484E+01
  7.6449327164764540E+01
  7.6449327166147242E+01
  7.6449327167513630E+01
  7.6449327168858986E+01
  7.6449327170179018E+01
  7.0583431219785652E+01
  7.0583431221165284E+01
  7.0583431222505837E+01
  7.0583431223804752E+01
  7.0583431225059982E+01
  7.0583431226270335E+01
  7.0583431227435156E+01
  7.0583431228554574E+01
  7.0583431229629355E+01
  7.0583431230661020E+01
  7.0583431231651673E+01
  7.0583431232603985E+01
  7.0583431233521267E+01
  7.0583431234407314E+01
  7.0583431235266346E+01
  7.0583431236103010E+01
  7.0583431236922209E+01
  7.0583431237729158E+01
  7.0583431238529158E+01
  7.0583431239327709E+01
  7.0583431240130153E+01
  7.0583431240941849E+01
  7.0583431241767997E+01
  7.0583431242613472E+01
  7.0583431243482906E+01
  7.0583431244380535E+01
  7.0583431245310109E+01
  7.0583431246274856E+01
  7.0583431247277446E+01
  7.0583431248319940E+01
  7.0583431249403731E+01
  7.0583431250529529E+01
  7.0583431251697391E+01
  7.0583431252906706E+01
  7.0583431254156167E+01
  7.0583431255443728E+01
  7.0583431256766744E+01
  7.0583431258122062E+01
  7.0583431259505915E+01
  7.0583431260914097E+01
  7.0583431262341975E+01
  7.0583431263784604E+01
  7.0583431265236825E+01
  7.0583431266693253E+01
  7.0583431268148473E+01
  7.0583431269597071E+01
  7.0583431271033817E+01
  7.0583431272453552E+01
  7.0583431273851446E+01
  7.0583431275223063E+01
  6.4167607671717363E+01
  6.4167607673042951E+01
  6.4167607674331109E+01
  6.4167607675579390E+01
  6.4167607676785920E+01
  6.4167607677949519E+01
  6.4167607679069619E+01
  6.4167607680146304E+01
  6.4167607681180385E+01
  6.4167607682173283E+01
  6.4167607683127045E+01
  6.4167607684044228E+01
  6.4167607684928001E+01
  6.4167607685782016E+01
  6.4167607686610339E+01
  6.4167607687417387E+01
  6.4167607688207866E+01
  6.4167607688986749E+01
  6.4167607689759137E+01
  6.4167607690530261E+01
  6.4167607691305250E+01
  6.4167607692089192E+01
  6.4167607692887060E+01
  6.4167607693703530E+01
  6.4167607694543008E+01
  6.4167607695409529E+01
  6.4167607696306661E+01
  6.4167607697237443E+01
  6.4167607698204463E+01
  6.4167607699209654E+01
  6.4167607700254308E+01
  6.4167607701339108E+01
  6.4167607702464068E+01
  6.4167607703628619E+01
  6.4167607704831440E+01
  6.4167607706070584E+01
  6.4167607707343578E+01
  6.4167607708647282E+01
  6.4167607709978171E+01
  6.4167607711332153E+01
  6.4167607712704850E+01
  6.4167607714091503E+01
  6.4167607715487122E+01
  6.4167607716886664E+01
  6.4167607718284899E+01
  6.4167607719676710E+01
  6.4167607721057010E+01
  6.4167607722420939E+01
  6.4167607723763894E+01
  6.4167607725081623E+01
  5.7088078326911727E+01
  5.7088078328069784E+01
  5.7088078329195255E+01
  5.7088078330286024E+01
  5.7088078331340476E+01
  5.7088078332357618E+01
  5.7088078333336945E+01
  5.7088078334278578E+01
  5.7088078335183205E+01
  5.7088078336052085E+01
  5.7088078336887008E+01
  5.7088078337690206E+01
  5.7088078338464463E+01
  5.7088078339212927E+01
  5.7088078339939166E+01
  5.7088078340647023E+01
  5.7088078341340584E+01
  5.7088078342024197E+01
  5.7088078342702268E+01
  5.7088078343379358E+01
  5.7088078344059930E+01
  5.7088078344748396E+01
  5.7088078345449048E+01
  5.7088078346165986E+01
  5.7088078346902996E+01
  5.7088078347663597E+01
  5.7088078348450864E+01
  5.7088078349267427E+01
  5.7088078350115495E+01
  5.7088078350996753E+01
  5.7088078351912301E+01
  5.7088078352862759E+01
  5.7088078353848069E+01
  5.7088078354867733E+01
  5.7088078355920580E+01
  5.7088078357004939E+01
  5.7088078358118601E+01
  5.7088078359258894E+01
  5.7088078360422642E+01
  5.7088078361606378E+01
  5.7088078362806222E+01
  5.7088078364018088E+01
  5.7088078365237628E+01
  5.7088078366460429E+01
  5.7088078367681966E+01
  5.7088078368897797E+01
  5.7088078370103517E+01
  5.7088078371294905E+01
  5.7088078372467976E+01
  5.7088078373619020E+01
  4.9191680289930162E+01
  4.9191680290805508E+01
  4.9191680291656340E+01
  4.9191680292481017E+01
  4.9191680293278388E+01
  4.9191680294047671E+01
  4.9191680294788540E+01
  4.9191680295501058E+01
  4.9191680296185758E+01
  4.9191680296843636E+01
  4.9191680297475969E+01
  4.9191680298084528E+01
  4.9191680298671379E+01
  4.9191680299238897E+01
  4.9191680299789766E+01
  4.9191680300326873E+01
  4.9191680300853335E+01
  4.9191680301372386E+01
  4.9191680301887359E+01
  4.9191680302401664E+01
  4.9191680302918677E+01
  4.9191680303441728E+01
  4.9191680303974003E+01
  4.9191680304518599E+01
  4.9191680305078350E+01
  4.9191680305655900E+01
  4.9191680306253545E+01
  4.9191680306873273E+01
  4.9191680307516712E+01
  4.9191680308185120E+01
  4.9191680308879327E+01
  4.9191680309599761E+01
  4.9191680310346413E+01
  4.9191680311118823E+01
  4.9191680311916159E+01
  4.9191680312737148E+01
  4.9191680313580093E+01
  4.9191680314442969E+01
  4.9191680315323453E+01
  4.9191680316218857E+01
  4.9191680317126284E+01
  4.9191680318042650E+01
  4.9191680318964700E+01
  4.9191680319889102E+01
  4.9191680320812488E+01
  4.9191680321731454E+01
  4.9191680322642753E+01
  4.9191680323543189E+01
  4.9191680324429797E+01
  4.9191680325299764E+01
  4.0265317351353680E+01
  4.0265317351837211E+01
  4.0265317352307243E+01
  4.0265317352762892E+01
  4.0265317353203528E+01
  4.0265317353628703E+01
  4.0265317354038238E+01
  4.0265317354432199E+01
  4.0265317354810882E+01
  4.0265317355174830E+01
  4.0265317355524751E+01
  4.0265317355861626E+01
  4.0265317356186586E+01
  4.0265317356500937E+01
  4.0265317356806165E+01
  4.0265317357103882E+01
  4.0265317357395766E+01
  4.0265317357683635E+01
  4.0265317357969295E+01
  4.0265317358254634E+01
  4.0265317358541488E+01
  4.0265317358831702E+01
  4.0265317359127046E+01
  4.0265317359429183E+01
  4.0265317359739697E+01
  4.0265317360060017E+01
  4.0265317360391400E+01
  4.0265317360734947E+01
  4.0265317361091562E+01
  4.0265317361461904E+01
  4.0265317361846435E+01
  4.0265317362245383E+01
  4.0265317362658735E+01
  4.0265317363086233E+01
  4.0265317363527409E+01
  4.0265317363981580E+01
  4.0265317364447782E+01
  4.0265317364924911E+01
  4.0265317365411661E+01
  4.0265317365906590E+01
  4.0265317366408084E+01
  4.0265317366914445E+01
  4.0265317367423890E+01
  4.0265317367934593E+01
  4.0265317368444670E+01
  4.0265317368952296E+01
  4.0265317369455651E+01
  4.0265317369952996E+01
  4.0265317370442695E+01
  4.0265317370923214E+01
POINT_DATA 550
SCALARS Temperature double
LOOKUP_TABLE default
  9.5893872633362875E+01
  9.5893872626647081E+01
  9.5893872626987530E+01
  9.5893872627317677E+01
  9.5893872627636995E+01
  9.5893872627945044E+01
  9.5893872628241525E+01
  9.5893872628526395E+01
  9.5893872628799741E+01
  9.5893872629061875E+01
  9.5893872629313222E+01
  9.5893872629554366E+01
  9.5893872629786017E+01
  9.5893872630009142E+01
  9.5893872630224735E+01
  9.5893872630433876E+01
  9.5893872630637830E+01
  9.5893872630837834E+01
  9.5893872631035279E+01
  9.5893872631231503E+01
  9.5893872631427911E+01
  9.5893872631625882E+01
  9.5893872631826710E+01
  9.5893872632031744E+01
  9.5893872632242235E+01
  9.5893872632459264E+01
  9.5893872632683880E+01
  9.5893872632916995E+01
  9.5893872633159347E+01
  9.5893872633411647E+01
  9.5893872633674235E+01
  9.5893872633947495E+01
  9.5893872634231528E+01
  9.5893872634526304E+01
  9.5893872634831524E+01
  9.5893872635146820E+01
  9.5893872635471581E+01
  9.5893872635805110E+01
  9.5893872636146526E+01
  9.5893872636494834E+01
  9.5893872636848897E+01
  9.5893872637207508E+01
  9.5893872637569402E+01
  9.5893872637933200E+01
  9.5893872638297537E+01
  9.5893872638661009E+01
  9.5893872639022277E+01
  9.5893872639379936E+01
  9.5893872639732791E+01
  9.5893872640079593E+01
  9.3709762347881622E+01
  9.3709762337990355E+01
  9.3709762338491402E+01
  9.3709762338977342E+01
  9.3709762339447366E+01
  9.3709762339900777E+01
  9.3709762340337264E+01
  9.3709762340756683E+01
  9.3709762341159191E+01
  9.3709762341545172E+01
  9.3709762341915351E+01
  9.3709762342270523E+01
  9.3709762342611825E+01
  9.3709762342940579E+01
  9.3709762343258276E+01
  9.3709762343566510E+01
  9.3709762343867155E+01
  9.3709762344162058E+01
  9.3709762344453168E+01
  9.3709762344742515E+01
  9.3709762345032118E+01
  9.3709762345324052E+01
  9.3709762345620248E+01
  9.3709762345922655E+01
  9.3709762346233035E+01
  9.3709762346553035E+01
  9.3709762346884190E+01
  9.3709762347227837E+01
  9.3709762347585098E+01
  9.3709762347956911E+01
  9.3709762348343929E+01
  9.3709762348746594E+01
  9.3709762349165061E+01
  9.3709762349599274E+01
  9.3709762350048834E+01
  9.3709762350513202E+01
  9.3709762350991483E+01
  9.3709762351482610E+01
  9.3709762351985290E+01
  9.3709762352498117E+01
  9.3709762353019329E+01
  9.3709762353547220E+01
  9.3709762354079899E+01
  9.3709762354615364E+01
  9.3709762355151568E+01
  9.3709762355686493E+01
  9.3709762356218178E+01
  9.3709762356744562E+01
  9.3709762357263855E+01
  9.3709762357774252E+01
  8.9192625190694457E+01
  8.9192625174837701E+01
  8.9192625175639975E+01
  8.9192625176418176E+01
  8.9192625177170925E+01
  8.9192625177897199E+01
  8.9192625178596387E+01
  8.9192625179268362E+01
  8.9192625179913350E+01
  8.9192625180531962E+01
  8.9192625181125337E+01
  8.9192625181694822E+01
  8.9192625182242168E+01
  8.9192625182769532E+01
  8.9192625183279276E+01
  8.9192625183773984E+01
  8.9192625184256556E+01
  8.9192625184730062E+01
  8.9192625185197542E+01
  8.9192625185662280E+01
  8.9192625186127486E+01
  8.9192625186596430E+01
  8.9192625187072224E+01
  8.9192625187557979E+01
  8.9192625188056468E+01
  8.9192625188570375E+01
  8.9192625189102117E+01
  8.9192625189653853E+01
  8.9192625190227346E+01
  8.9192625190824060E+01
  8.9192625191445075E+01
  8.9192625192091043E+01
  8.9192625192762264E+01
  8.9192625193458525E+01
  8.9192625194179357E+01
  8.9192625194923750E+01
  8.9192625195690312E+01
  8.9192625196477337E+01
  8.9192625197282808E+01
  8.9192625198104324E+01
  8.9192625198939311E+01
  8.9192625199784842E+01
  8.9192625200637963E+01
  8.9192625201495446E+01
  8.9192625202354108E+01
  8.9192625203210682E+01
  8.9192625204061954E+01
  8.9192625204904800E+01
  8.9192625205736206E+01
  8.9192625206553458E+01
  8.4355862195473861E+01
  8.4355862174617926E+01
  8.4355862175671703E+01
  8.4355862176693932E+01
  8.4355862177682837E+01
  8.4355862178637068E+01
  8.4355862179555857E+01
  8.4355862180439075E+01
  8.4355862181286923E+01
  8.4355862182100367E+01
  8.4355862182880713E+01
  8.4355862183629895E+01
  8.4355862184350158E+01
  8.4355862185044273E+01
  8.4355862185715424E+01
  8.4355862186367006E+01
  8.4355862187002757E+01
  8.4355862187626670E+01
  8.4355862188242824E+01
  8.4355862188855440E+01
  8.4355862189468738E+01
  8.4355862190087024E+01
  8.4355862190714362E+01
  8.4355862191354746E+01
  8.4355862192011898E+01
  8.4355862192689273E+01
  8.4355862193390067E+01
  8.4355862194117023E+01
  8.4355862194872486E+01
  8.4355862195658389E+01
  8.4355862196476082E+01
  8.4355862197326445E+01
  8.4355862198209778E+01
  8.4355862199125923E+01
  8.4355862200074142E+01
  8.4355862201053128E+01
  8.4355862202061118E+01
  8.4355862203095825E+01
  8.4355862204154590E+01
  8.4355862205234260E+01
  8.4355862206331508E+01
  8.4355862207442470E+01
  8.4355862208563252E+01
  8.4355862209689647E+01
  8.4355862210817506E+01
  8.4355862211942551E+01
  8.4355862213060590E+01
  8.4355862214167530E+01
  8.4355862215259464E+01
  8.4355862216332753E+01
  7.9150726607755885E+01
  7.9150726583242076E+01
  7.9150726584478747E+01
  7.9150726585678527E+01
  7.9150726586839340E+01
  7.9150726587959610E+01
  7.9150726589038470E+01
  7.9150726590075706E+01
  7.9150726591071702E+01
  7.9150726592027453E+01
  7.9150726592944650E+01
  7.9150726593825354E+01
  7.9150726594672406E+01
  7.9150726595489019E+01
  7.9150726596278801E+01
  7.9150726597045804E+01
  7.9150726597794431E+01
  7.9150726598529317E+01
  7.9150726599255250E+01
  7.9150726599977119E+01
  7.9150726600699926E+01
  7.9150726601428630E+01
  7.9150726602167992E+01
  7.9150726602922703E+01
  7.9150726603697095E+01
  7.9150726604495205E+01
  7.9150726605320756E+01
  7.9150726606176931E+01
  7.9150726607066488E+01
  7.9150726607991601E+01
  7.9150726608953875E+01
  7.9150726609954305E+01
  7.9150726610993289E+01
  7.9150726612070542E+01
  7.9150726613185242E+01
  7.9150726614335852E+01
  7.9150726615520270E+01
  7.9150726616735881E+01
  7.9150726617979458E+01
  7.9150726619247436E+01
  7.9150726620535721E+01
  7.9150726621840022E+01
  7.9150726623155606E+01
  7.9150726624477713E+01
  7.9150726625801369E+01
  7.9150726627121628E+01
  7.9150726628433617E+01
  7.9150726629732560E+01
  7.9150726631013853E+01
  7.9150726632273248E+01
  7.3516379195528486E+01
  7.3516379169032774E+01
  7.3516379170367188E+01
  7.3516379171661939E+01
  7.3516379172914768E+01
  7.3516379174124054E+01
  7.3516379175288876E+01
  7.3516379176408961E+01
  7.3516379177484794E+01
  7.3516379178517440E+01
  7.3516379179508704E+01
  7.3516379180460859E+01
  7.3516379181376948E+01
  7.3516379182260408E+01
  7.3516379183115149E+01
  7.3516379183945560E+01
  7.3516379184756332E+01
  7.3516379185552424E+01
  7.3516379186339023E+01
  7.3516379187121416E+01
  7.3516379187904946E+01
  7.3516379188694899E+01
  7.3516379189496433E+01
  7.3516379190314538E+01
  7.3516379191153831E+01
  7.3516379192018761E+01
  7.3516379192913249E+01
  7.3516379193840649E+01
  7.3516379194803989E+01
  7.3516379195805513E+01
  7.3516379196846970E+01
  7.3516379197929396E+01
  7.3516379199053205E+01
  7.3516379200218068E+01
  7.3516379201423078E+01
  7.3516379202666627E+01
  7.3516379203946400E+01
  7.3516379205259540E+01
  7.3516379206602636E+01
  7.3516379207971795E+01
  7.3516379209362682E+01
  7.3516379210770552E+01
  7.3516379212190500E+01
  7.3516379213617270E+01
  7.3516379215045589E+01