# vtk DataFile Version 3.0
VTK datafile generated by Trushant
ASCII
DATASET UNSTRUCTURED_GRID
POINTS 13471 double
  0.0000000000000000E+00	  0.0000000000000000E+00	  0.0000000000000000E+00
  0.0000000000000000E+00	  1.0000000000000000E+00	  0.0000000000000000E+00
  1.0000000000000000E+00	  1.0000000000000000E+00	  0.0000000000000000E+00
  1.0000000000000000E+00	  0.0000000000000000E+00	  0.0000000000000000E+00
  0.0000000000000000E+00	  9.9999999999811039E-03	  0.0000000000000000E+00
  0.0000000000000000E+00	  1.9999999999962371E-02	  0.0000000000000000E+00
  0.0000000000000000E+00	  2.9999999999943069E-02	  0.0000000000000000E+00
  0.0000000000000000E+00	  3.9999999999921862E-02	  0.0000000000000000E+00
  0.0000000000000000E+00	  4.9999999999899659E-02	  0.0000000000000000E+00
  0.0000000000000000E+00	  5.9999999999878373E-02	  0.0000000000000000E+00
  0.0000000000000000E+00	  6.9999999999860507E-02	  0.0000000000000000E+00
  0.0000000000000000E+00	  7.9999999999845181E-02	  0.0000000000000000E+00
  0.0000000000000000E+00	  8.9999999999829897E-02	  0.0000000000000000E+00
  0.0000000000000000E+00	  9.9999999999814626E-02	  0.0000000000000000E+00
  0.0000000000000000E+00	  1.0999999999979940E-01	  0.0000000000000000E+00
  0.0000000000000000E+00	  1.1999999999978320E-01	  0.0000000000000000E+00
  0.0000000000000000E+00	  1.2999999999976089E-01	  0.0000000000000000E+00
  0.0000000000000000E+00	  1.3999999999973281E-01	  0.0000000000000000E+00
  0.0000000000000000E+00	  1.4999999999970359E-01	  0.0000000000000000E+00
  0.0000000000000000E+00	  1.5999999999967451E-01	  0.0000000000000000E+00
  0.0000000000000000E+00	  1.6999999999964530E-01	  0.0000000000000000E+00
  0.0000000000000000E+00	  1.7999999999961619E-01	  0.0000000000000000E+00
  0.0000000000000000E+00	  1.8999999999958700E-01	  0.0000000000000000E+00
  0.0000000000000000E+00	  1.9999999999955789E-01	  0.0000000000000000E+00
  0.0000000000000000E+00	  2.0999999999952881E-01	  0.0000000000000000E+00
  0.0000000000000000E+00	  2.1999999999949960E-01	  0.0000000000000000E+00
  0.0000000000000000E+00	  2.2999999999947041E-01	  0.0000000000000000E+00
  0.0000000000000000E+00	  2.3999999999944130E-01	  0.0000000000000000E+00
  0.0000000000000000E+00	  2.4999999999941211E-01	  0.0000000000000000E+00
  0.0000000000000000E+00	  2.5999999999938300E-01	  0.0000000000000000E+00
  0.0000000000000000E+00	  2.6999999999935381E-01	  0.0000000000000000E+00
  0.0000000000000000E+00	  2.7999999999932468E-01	  0.0000000000000000E+00
  0.0000000000000000E+00	  2.8999999999929549E-01	  0.0000000000000000E+00
  0.0000000000000000E+00	  2.9999999999926641E-01	  0.0000000000000000E+00
  0.0000000000000000E+00	  3.0999999999923722E-01	  0.0000000000000000E+00
  0.0000000000000000E+00	  3.1999999999920808E-01	  0.0000000000000000E+00
  0.0000000000000000E+00	  3.2999999999917901E-01	  0.0000000000000000E+00
  0.0000000000000000E+00	  3.3999999999914982E-01	  0.0000000000000000E+00
  0.0000000000000000E+00	  3.4999999999912068E-01	  0.0000000000000000E+00
  0.0000000000000000E+00	  3.5999999999909149E-01	  0.0000000000000000E+00
  0.0000000000000000E+00	  3.6999999999906241E-01	  0.0000000000000000E+00
  0.0000000000000000E+00	  3.7999999999903322E-01	  0.0000000000000000E+00
  0.0000000000000000E+00	  3.8999999999900409E-01	  0.0000000000000000E+00
  0.0000000000000000E+00	  3.9999999999897490E-01	  0.0000000000000000E+00
  0.0000000000000000E+00	  4.0999999999894582E-01	  0.0000000000000000E+00
  0.0000000000000000E+00	  4.1999999999891668E-01	  0.0000000000000000E+00
  0.0000000000000000E+00	  4.2999999999888749E-01	  0.0000000000000000E+00
  0.0000000000000000E+00	  4.3999999999885842E-01	  0.0000000000000000E+00
  0.0000000000000000E+00	  4.4999999999882923E-01	  0.0000000000000000E+00
  0.0000000000000000E+00	  4.5999999999879998E-01	  0.0000000000000000E+00
  0.0000000000000000E+00	  4.6999999999877079E-01	  0.0000000000000000E+00
  0.0000000000000000E+00	  4.7999999999874182E-01	  0.0000000000000000E+00
  0.0000000000000000E+00	  4.8999999999871258E-01	  0.0000000000000000E+00
  0.0000000000000000E+00	  4.9999999999869432E-01	  0.0000000000000000E+00
  0.0000000000000000E+00	  5.0999999999870982E-01	  0.0000000000000000E+00
  0.0000000000000000E+00	  5.1999999999873614E-01	  0.0000000000000000E+00
  0.0000000000000000E+00	  5.2999999999876257E-01	  0.0000000000000000E+00
  0.0000000000000000E+00	  5.3999999999878878E-01	  0.0000000000000000E+00
  0.0000000000000000E+00	  5.4999999999881521E-01	  0.0000000000000000E+00
  0.0000000000000000E+00	  5.5999999999884154E-01	  0.0000000000000000E+00
  0.0000000000000000E+00	  5.6999999999886786E-01	  0.0000000000000000E+00
  0.0000000000000000E+00	  5.7999999999889418E-01	  0.0000000000000000E+00
  0.0000000000000000E+00	  5.8999999999892050E-01	  0.0000000000000000E+00
  0.0000000000000000E+00	  5.9999999999894682E-01	  0.0000000000000000E+00
  0.0000000000000000E+00	  6.0999999999897314E-01	  0.0000000000000000E+00
  0.0000000000000000E+00	  6.1999999999899946E-01	  0.0000000000000000E+00
  0.0000000000000000E+00	  6.2999999999902578E-01	  0.0000000000000000E+00
  0.0000000000000000E+00	  6.3999999999905210E-01	  0.0000000000000000E+00
  0.0000000000000000E+00	  6.4999999999907843E-01	  0.0000000000000000E+00
  0.0000000000000000E+00	  6.5999999999910486E-01	  0.0000000000000000E+00
  0.0000000000000000E+00	  6.6999999999913118E-01	  0.0000000000000000E+00
  0.0000000000000000E+00	  6.7999999999915739E-01	  0.0000000000000000E+00
  0.0000000000000000E+00	  6.8999999999918371E-01	  0.0000000000000000E+00
  0.0000000000000000E+00	  6.9999999999921014E-01	  0.0000000000000000E+00
  0.0000000000000000E+00	  7.0999999999923646E-01	  0.0000000000000000E+00
  0.0000000000000000E+00	  7.1999999999926279E-01	  0.0000000000000000E+00
  0.0000000000000000E+00	  7.2999999999928922E-01	  0.0000000000000000E+00
  0.0000000000000000E+00	  7.3999999999931543E-01	  0.0000000000000000E+00
  0.0000000000000000E+00	  7.4999999999934175E-01	  0.0000000000000000E+00
  0.0000000000000000E+00	  7.5999999999936807E-01	  0.0000000000000000E+00
  0.0000000000000000E+00	  7.6999999999939450E-01	  0.0000000000000000E+00
  0.0000000000000000E+00	  7.7999999999942071E-01	  0.0000000000000000E+00
  0.0000000000000000E+00	  7.8999999999944703E-01	  0.0000000000000000E+00
  0.0000000000000000E+00	  7.9999999999947335E-01	  0.0000000000000000E+00
  0.0000000000000000E+00	  8.0999999999949979E-01	  0.0000000000000000E+00
  0.0000000000000000E+00	  8.1999999999952611E-01	  0.0000000000000000E+00
  0.0000000000000000E+00	  8.2999999999955232E-01	  0.0000000000000000E+00
  0.0000000000000000E+00	  8.3999999999957875E-01	  0.0000000000000000E+00
  0.0000000000000000E+00	  8.4999999999960507E-01	  0.0000000000000000E+00
  0.0000000000000000E+00	  8.5999999999963139E-01	  0.0000000000000000E+00
  0.0000000000000000E+00	  8.6999999999965771E-01	  0.0000000000000000E+00
  0.0000000000000000E+00	  8.7999999999968415E-01	  0.0000000000000000E+00
  0.0000000000000000E+00	  8.8999999999971036E-01	  0.0000000000000000E+00
  0.0000000000000000E+00	  8.9999999999973668E-01	  0.0000000000000000E+00
  0.0000000000000000E+00	  9.0999999999976311E-01	  0.0000000000000000E+00
  0.0000000000000000E+00	  9.1999999999978943E-01	  0.0000000000000000E+00
  0.0000000000000000E+00	  9.2999999999981564E-01	  0.0000000000000000E+00
  0.0000000000000000E+00	  9.3999999999984196E-01	  0.0000000000000000E+00
  0.0000000000000000E+00	  9.4999999999986839E-01	  0.0000000000000000E+00
  0.0000000000000000E+00	  9.5999999999989472E-01	  0.0000000000000000E+00
  0.0000000000000000E+00	  9.6999999999992104E-01	  0.0000000000000000E+00
  0.0000000000000000E+00	  9.7999999999994747E-01	  0.0000000000000000E+00
  0.0000000000000000E+00	  9.8999999999997368E-01	  0.0000000000000000E+00
  9.9999999999811039E-03	  1.0000000000000000E+00	  0.0000000000000000E+00
  1.9999999999962371E-02	  1.0000000000000000E+00	  0.0000000000000000E+00
  2.9999999999943069E-02	  1.0000000000000000E+00	  0.0000000000000000E+00
  3.9999999999921862E-02	  1.0000000000000000E+00	  0.0000000000000000E+00
  4.9999999999899659E-02	  1.0000000000000000E+00	  0.0000000000000000E+00
  5.9999999999878373E-02	  1.0000000000000000E+00	  0.0000000000000000E+00
  6.9999999999860507E-02	  1.0000000000000000E+00	  0.0000000000000000E+00
  7.9999999999845181E-02	  1.0000000000000000E+00	  0.0000000000000000E+00
  8.9999999999829897E-02	  1.0000000000000000E+00	  0.0000000000000000E+00
  9.9999999999814626E-02	  1.0000000000000000E+00	  0.0000000000000000E+00
  1.0999999999979940E-01	  1.0000000000000000E+00	  0.0000000000000000E+00
  1.1999999999978320E-01	  1.0000000000000000E+00	  0.0000000000000000E+00
  1.2999999999976089E-01	  1.0000000000000000E+00	  0.0000000000000000E+00
  1.3999999999973281E-01	  1.0000000000000000E+00	  0.0000000000000000E+00
  1.4999999999970359E-01	  1.0000000000000000E+00	  0.0000000000000000E+00
  1.5999999999967451E-01	  1.0000000000000000E+00	  0.0000000000000000E+00
  1.6999999999964530E-01	  1.0000000000000000E+00	  0.0000000000000000E+00
  1.7999999999961619E-01	  1.0000000000000000E+00	  0.0000000000000000E+00
  1.8999999999958700E-01	  1.0000000000000000E+00	  0.0000000000000000E+00
  1.9999999999955789E-01	  1.0000000000000000E+00	  0.0000000000000000E+00
  2.0999999999952881E-01	  1.0000000000000000E+00	  0.0000000000000000E+00
  2.1999999999949960E-01	  1.0000000000000000E+00	  0.0000000000000000E+00
  2.2999999999947041E-01	  1.0000000000000000E+00	  0.0000000000000000E+00
  2.3999999999944130E-01	  1.0000000000000000E+00	  0.0000000000000000E+00
  2.4999999999941211E-01	  1.0000000000000000E+00	  0.0000000000000000E+00
  2.5999999999938300E-01	  1.0000000000000000E+00	  0.0000000000000000E+00
  2.6999999999935381E-01	  1.0000000000000000E+00	  0.0000000000000000E+00
  2.7999999999932468E-01	  1.0000000000000000E+00	  0.0000000000000000E+00
[...]
CELL_DATA 26540
SCALARS Temperature double
LOOKUP_TABLE default
  3.8745326715597113E-02
  5.3066773598220457E-02
  3.2263822970008356E-02
  3.2227349246940186E-02
  3.2088841667032596E-02
  9.3831057104456963E-03
  9.3957102698215746E-03
  9.3830833470034940E-03
  9.4306139126566022E-03
  5.9107555743171919E-02
  2.6655575834628010E-02
  2.5932639920859840E-02
  2.5934305731346873E-02
  2.6660450655107925E-02
  2.6655212607711996E-02
  2.5928207971005490E-02
  5.3702389174403245E-02
  5.2029846362721288E-02
  5.1994531206997388E-02
  3.8269223471648101E-02
  3.8225944339800033E-02
  3.8178854512928899E-02
  6.0410769569669408E-03
  6.1471865799377426E-03
  5.3515971967536366E-02
  5.3470519491467014E-02
  2.8201315885642470E-02
  4.4801044541784921E-02
  4.4650310094395483E-02
  5.3498430137619742E-02
  4.9359387403103992E-02
  5.0522649907560668E-02
  2.6708624927940298E-02
  2.6441021780918166E-02
  2.6429275162927715E-02
  2.6591108501428380E-02
  2.4590316001455410E-02
  2.4679873868366786E-02
  2.4673860045372833E-02
  4.8625493806748960E-03
  4.8486143107089657E-03
  2.3873117886301330E-02
  2.3962967316074578E-02
  2.3962051701975916E-02
  6.0421385806344964E-02
  5.5958532100628233E-02
  3.1043138788084276E-02
  8.5669604852918937E-03
  8.6229572783926168E-03
  8.6077359216375302E-03
  8.5741785019834739E-03
  2.4480435523706937E-02
  2.4474638054300391E-02
  2.4617094643527120E-02
  2.4466348065949405E-02
  2.3062306290116321E-02
  2.3059294359310964E-02
  2.3102336237345575E-02
  2.3070317567059597E-02
  5.4654332848336144E-02
  5.4267301458796692E-02
  5.8420675150278073E-02
  1.7380020016622373E-02
  1.8588285635699371E-02
  1.7195620534147131E-02
  1.8438374705286163E-02
  1.7130243782336341E-02
  1.8404517390181434E-02
  1.7112547182234986E-02
  1.8386000362874608E-02
  3.0961285288423155E-02
  1.3420968947835815E-02
  1.2649417628558148E-02
  1.3399110990670569E-02
  1.2654097998280558E-02
  5.0759015655716049E-02
  4.2108217888391183E-02
  2.7987617013416861E-02
  2.8122555614186317E-02
  2.8091768049043005E-02
  5.9391883244989035E-02
  2.9043477431820758E-02
  5.3220719938295045E-02
  3.8862335006691513E-02
  3.8937015494103083E-02
  3.8873566700413441E-02
  5.2638013600423479E-02
  4.6470594864421004E-02
  4.6395567892157159E-02
  4.6359195963149712E-02
  5.9684149946844192E-02
  1.9623400446965079E-02
  1.9676723038144248E-02
  1.9662096719357914E-02
  5.9087902330733896E-02
  6.4297711143015950E-03
  5.2764540242955984E-03
  6.4404405895033033E-03
  5.2875387263341773E-03
  6.4466368061311778E-03
  5.2914289156399371E-03
  6.4472889357018066E-03
  5.2901911657355326E-03
  6.0041794511807932E-02
  6.0033242236187397E-02
  1.2813338311002747E-02
  1.2444796885943707E-02
  1.2797181466517447E-02
  1.2429360790400329E-02
  1.2774431324169376E-02
  1.2402789943767280E-02
  1.2788717685187035E-02
  1.2419965594943409E-02
  4.0108181260719321E-02
  6.1489837407744725E-02
  2.2236489875559498E-02
  2.2232833159773587E-02
  2.2239109896880153E-02
  2.2244961132544296E-02
  5.0435557065271766E-02
  1.1682306364337895E-02
  1.1666870788132687E-02
  1.1660348459011685E-02
  1.1671879347594913E-02
  6.0242244292880297E-02
  7.2021931898862135E-03
  7.2186339654353379E-03
  7.2384208700357030E-03
  7.2670496225993265E-03
  5.3927404046837782E-02
  4.6408998537663761E-02
  5.8961164945979416E-02
  5.2861391866993158E-02
  4.7900236056243571E-02
  1.5823899841217088E-02
  1.5809887312265989E-02
  1.5689052034570383E-02
  1.5840470215762376E-02
  5.2218417207750938E-02
  3.0756806526101358E-02
  3.0224599224939735E-02
  5.6948548839535077E-03
  5.7158004267877337E-03
  5.7006585118645281E-03
  3.1357053490790404E-02
  2.8336850426380015E-02
  6.1407111084593999E-02
  5.2834931940832386E-02
  5.2369964480725027E-02
  3.8629775003251370E-02
  5.6328049965762829E-02
  3.6800255192934499E-02
  1.6645921135596028E-02
  1.6592341126658448E-02
  1.6630645365697583E-02
  3.9960296821286677E-02
  4.0004932797700940E-02
  4.0016886151160606E-02
  5.8368901825420483E-02
  5.8460794968830360E-02
  3.3447625140054719E-02
  2.5416212339037621E-02
  2.5427668736203876E-02
  2.5448891805270532E-02
  2.5430721939293445E-02
  2.4893036004709681E-02
  2.4860876400597386E-02
  2.4792135925838139E-02
  2.4867994203545872E-02
  2.7555836072304402E-02
  2.7516310386748278E-02
  2.7767189480204665E-02
  2.7492773043053521E-02
  5.2920718846956080E-02
  5.2610222201129479E-02
  6.0421793020961748E-02
  5.0073985324038207E-02
  4.9949495312610871E-02
  2.4630548540411006E-02
  2.4592528147808854E-02
  2.4662446499209432E-02
  2.4574841506683591E-02
  5.7583130849952174E-02
  2.3869570646058737E-02
  2.3862024044672456E-02
  2.3954147922260579E-02
  2.3854224905984552E-02
  1.8035214962353489E-02
  1.7936501364588429E-02
  5.6979758620414260E-02
  4.0196174591443666E-02
  4.0273769293360788E-02
  4.0286109814312347E-02
  9.6398095144059354E-03
  9.6515504817567509E-03
  9.6155246224572839E-03
  9.6336898276413244E-03
  4.8144197456508032E-02
  4.8095081302679345E-02
  1.2636857111232656E-02
  1.2642876660830037E-02
  1.2682556139002423E-02
  1.2691473099464846E-02
  6.1263175050243292E-02
  4.7480573044164788E-02
  4.0713589229981063E-02
  4.0902036996670409E-02
  4.0642928458172432E-02
  4.0832830815626726E-02
  3.8928221388676819E-02
  3.9048908606706199E-02
  3.8941586326482813E-02
  4.7217584890376946E-02
  7.7654595439307656E-03
  7.7681937718137922E-03
  7.7438211179098517E-03
  7.7140743816035392E-03
  3.8306900074141725E-02
  3.8245253495052083E-02
  5.2514042043123363E-02
  4.4097535777336810E-03
  4.3972589169108001E-03
  4.0219402217712745E-02
  2.4862704870526170E-03
  2.4789825273009648E-03
  2.4846724481667960E-03
  2.4976400253619718E-03
  5.9486263035800839E-02
  6.2272124389062086E-02
  1.6336891292484470E-02
  1.6326362514209432E-02
  1.6599076823912727E-02
  1.6318909582771223E-02
  4.8109232626766717E-02
  2.7971055627877883E-02
  2.7929021796774846E-02
  2.7907964711352626E-02
  5.8318520527646418E-02
  4.1835354697947948E-02
  3.2100124427311377E-03
  3.2194941075958214E-03
  3.2175622583063487E-03
  3.2337156758539508E-03
  3.8232890319822681E-02
  7.9876844584926589E-03
  7.9629208334598169E-03
  8.0211662189544654E-03
  7.9917535209134347E-03
  2.3326208004921165E-02
  2.3306971259592208E-02
  2.3418933661686570E-02
  2.3314809461007738E-02
  5.3138268102086487E-02
  5.3095126392649024E-02
  5.2621046856518985E-02
  5.4147941880538154E-02
  3.9299685622913985E-02
  3.9379253669882715E-02
  3.9326246061061554E-02
  6.0468155497272580E-02
  6.0582180292905567E-02
  8.3716368349185137E-04
  8.5140272349608587E-04
  8.3924244671758699E-04
  8.3969653908216630E-04
  3.3134155202544861E-02
  5.2818366900837105E-02
  2.5199937644726784E-02
  2.5066905865464926E-02
  2.5025915843274991E-02
  2.5109756894754573E-02
  6.2191511964028813E-02
  5.7220724368097518E-02
  4.4972543269435748E-02
  2.8573210078655310E-02
  2.8655548278631270E-02
  2.8625289475742777E-02
  5.9712488300977279E-02
  6.1917105942964207E-02
  2.6688206286988168E-02
  5.3385776536651747E-02
  4.9959826952428038E-03
  4.9822642015774892E-03
  4.9844537791585248E-03
  5.0136091162892920E-03
  7.4324762284815474E-03
  7.4601182934973887E-03
  7.4803369704365243E-03
  7.4852618915543945E-03
  5.0218480848092155E-02
  4.3779080381349970E-02
  3.6743628462747036E-02
  4.3412992502185298E-02
  4.3395936141603052E-02
  4.3241226834651370E-02
  1.2661717705072101E-02
  1.2187359532569461E-02
  1.2653935489152824E-02
  1.2179318500097500E-02
  1.2623427736482935E-02
  1.2150477882265214E-02
  5.5293501668410877E-02
  3.8249028879255936E-02
  5.5233096072276652E-02
  5.1556676857644958E-02
  1.2484998415746266E-02
  1.2451917691113319E-02
  1.2466684251221627E-02
  1.2465623484522508E-02
  3.8587615122430086E-02
  5.1489713129239625E-02
  5.0935061643933258E-02
  6.0832489910174578E-02
  3.8699675240884600E-02
  3.8549462730845467E-02
  3.8803145947338379E-02
  3.8650695781635477E-02
  3.8675650151968166E-02
  3.8532731371992347E-02
  5.4902897900636238E-02
  3.3158976223821524E-02
  3.2973644566252180E-02
  3.3113125692430766E-02
  5.7511713792084281E-04
  5.7497381561358318E-04
  5.7732353691442213E-04
  5.7510618901983346E-04
  4.7149359078167490E-04
  4.6962146584740864E-04
  4.7387324137389313E-04
  4.7042490880233693E-04
  5.5258064210934515E-02
  5.3242506827652206E-02
  5.3215120301099254E-02
  5.6825925334438927E-02
  5.2315209080515117E-02
  5.2451502843071200E-02
  1.3947765660232670E-02
  1.3888642992131746E-02
  1.3927377884209530E-02
  1.3891156859977343E-02
  5.5317889103962507E-02
  1.9478821593899787E-02
  1.9472989525996812E-02
  1.9512399904610008E-02
  1.9458251859904616E-02
  3.2654983146438041E-02
  3.2611210052402258E-02
  3.2479106821214430E-02
  3.6572379634406113E-02
  3.2091228524164551E-02
  3.2664713355172244E-02
  3.2621162095024532E-02
  3.2051127125050836E-02
  3.2632686149197843E-02
  3.2064432644626197E-02
  5.5711829717588229E-02
  2.3656436079668107E-03
  4.2964615450036006E-02
  3.6784463091392230E-02
  9.6424234708953195E-04
  9.6354289698390996E-04
  9.7733515318011786E-04
  4.1379642178460206E-02
  1.3149999016325129E-03
  1.3345944279565369E-03
  1.3182779517784016E-03
  1.3189061882734254E-03
  5.1086577298817271E-02
  1.2417156405360931E-02
  1.2020147310054677E-02
  5.8029462653680398E-02
  5.7714351295953308E-02
  5.9897363175766424E-02
  5.0940232033461506E-02
  5.0589946543391016E-02
  5.3348718335984723E-02
  4.3214527744206935E-02
  9.8155326222396713E-03
  9.8277501999709874E-03
  9.8144483781316422E-03
  9.8564077892317921E-03
  2.3506965109389029E-03
  3.7753218458930475E-02
  3.4474482223764681E-02
  6.0797129154502812E-02
  6.0603484189735699E-02
  5.5908717762536093E-02
  5.4807120683715689E-02
  5.8296914538130004E-02
  5.7847806657325869E-02
  5.1807978260706197E-02
  5.6999796280988495E-02
  4.2358716763800985E-02
  4.1850103834486882E-02
  5.1757790704456547E-02
  5.8578142100815619E-02
  3.8021597630854109E-02
  5.8393967638394828E-02
  2.8380277742447051E-02
  2.8252512960225091E-02
  2.8251533008383282E-02
  2.8227980975785837E-02
  5.9270440184888182E-02
  3.6222088337384190E-02
  3.5736670273585534E-02
  5.4888420543495915E-02
  5.9907624501496219E-02
  4.0885928446086968E-02
  4.5925910588394694E-02
  4.6763878250810659E-02
  4.6665975302037269E-02
  4.5823775954043799E-02
  4.4641816793057620E-03
  4.4620497206880562E-03
  4.4511723379756021E-03
  5.8045031209734185E-02
  2.4190172045412302E-02
  2.4142691206057134E-02
  2.4179548568410755E-02
  2.4126037939694690E-02
  7.8856050940900382E-03
  7.9449190574752866E-03
  7.9221804122206977E-03
  7.8929521400802997E-03
  4.9168213839766120E-02
  4.9084894046827164E-02
  1.9590591283001949E-02
  1.9496007235115971E-02
  1.9587224026060286E-02
  1.9582140515616797E-02
  3.4863591962807201E-02
  3.5382970045328470E-02
  5.1908942017069595E-02
  5.1686696774505249E-02
  2.6714836850873402E-02
  2.6698304672749085E-02
  2.6816906759284411E-02
  2.6704799052231030E-02
  4.6320894739853812E-02
  4.6235124028014302E-02
  4.6108821236479976E-02
  5.5602858440026139E-02
  6.1821707604446108E-02
  5.6684671449412506E-02
  5.7149049208136460E-02
  4.4522568928106604E-02
  4.4065002196856523E-02
  2.5920501247892958E-02
  2.5670833477383248E-02
  2.5666903970766198E-02
  2.5798731609107034E-02
  3.7999911671058810E-02
  1.0108864594329355E-02
  9.7449853689993132E-03
  9.7725353827026532E-03
  1.0084923608756449E-02
  9.5842847158686597E-03
  9.7939044007341880E-03
  1.0138725714070517E-02
  9.8042442103386546E-03
  5.9704093531978440E-02
  4.9064087608706751E-02
  6.0887175946995130E-02
  2.0167495383748107E-02
  2.0161748682296383E-02
  2.0223290569620148E-02
  2.0180732908263856E-02
  5.9114522614398611E-02
  6.0859564664748914E-02
  5.9407841523443769E-03
  5.9191930052075788E-03
  5.9556246180184997E-03
  5.9256374023089475E-03
  3.4166733067522242E-02
  3.4343323516400723E-02
  3.4295563054136849E-02
  4.3687406353516950E-02
  2.1955724689146312E-02
  2.1880443736201221E-02
  2.1891859815993914E-02
  5.4620571438623172E-02
  4.9822833483439445E-02
  4.8678323431047797E-03
  4.8504108448025668E-03
  4.4204577829666851E-02
  5.3902877470765288E-03
  5.3896120615385453E-03
  5.4254829446070000E-03
  5.3884989236557303E-03
  5.4319461447916502E-02
  6.2012121457614540E-02
  1.7170585696346729E-02
  1.7145309909568220E-02
  1.7179611065036095E-02
  1.7216944658751517E-02
  5.5172538009631476E-02
  3.5502864455951223E-02
  3.2317382068676605E-02
  2.6477273175889271E-02
  4.2962217173829718E-02
  3.3421835268411006E-03
  5.0321275167341188E-02
  1.1166635994707923E-02
  1.1163415145952111E-02
  1.1182480840295128E-02
  1.1149538763637010E-02
  8.5466898409685740E-03
  5.6235504494707163E-02
  4.8395721329678572E-02
  2.4186538821808243E-02
  2.4182616852805986E-02
  2.4169393596304822E-02
  1.2653154560561269E-02
  1.2636078246267753E-02
  1.2628874489956015E-02
  1.2640551474004428E-02
  5.3908061292124686E-02
  8.1710495452393828E-03
  8.1652040561478248E-03
  7.2012791955098710E-03
  7.2064110874491888E-03
  8.1469326632136897E-03
  7.1852844331511938E-03
  6.1601173046254211E-02
  6.1454584467023780E-02
  4.2286236585073050E-02
  4.2295294004159760E-02
  4.2326359809791589E-02
  4.0217482302450071E-02
  4.0284470206068429E-02
  3.9847400961670651E-02
  5.1858730316230076E-02
  4.7999254861166504E-02
  4.7496483445774881E-02
  5.3520477788684406E-02
  2.8034357253112093E-02
  2.8009319818988881E-02
  1.0959760944546116E-02
  4.8936807964886100E-02
  4.3467366898136545E-02
  4.3411804383167427E-02
  4.3440805103743561E-02
  1.7008498717542127E-02
  1.6986726521707317E-02
  1.5771372824809612E-02
  1.5751764929120431E-02
  1.5726171382345500E-02
  1.6970343899923419E-02
  1.6970380215976161E-02
  1.5735487637534601E-02
  5.9348868516346041E-02
  5.0703881996388714E-02
  4.8740253172769275E-02
  4.9176282777704673E-02
  4.3798445368748114E-02
  3.4767881590803885E-02
  4.4186872919621291E-02
  4.4036129143635284E-02
  3.6772530885001528E-02
  3.6665513386473392E-02
  3.6691298844049237E-02
  3.2174083565827009E-02
  5.1487088703068992E-02
  6.2192013571466274E-02
  4.7745609881286476E-02
  4.7684767491583083E-02
  5.9924169514639115E-02
  6.1474029197733003E-02
  5.6393185546956028E-02
  6.0651655468030918E-02
  7.1969089751688954E-03
  7.2000015973257663E-03
  7.1769293432283349E-03
  7.1435986288805580E-03
  5.1598396301826790E-02
  5.1263493510652743E-02
  4.2793559508786633E-02
  4.3145006119194827E-02
  6.2718219051340826E-02
  1.8446825360817473E-02
  1.8348742230709498E-02
  5.2096729718280825E-02
  5.2063607860659854E-02
  5.8370305389301581E-02
  1.6113881651946935E-03
  1.6106657833220117E-03
  1.6668201840367720E-03
  1.6321883189762795E-03
  1.4653638526642487E-02
  1.4627949703458556E-02
  1.4645885637911327E-02
  1.4659694836066179E-02
  2.4711100352195356E-02
  2.4662925545835830E-02
  2.4648013104999825E-02
  2.4645554223165809E-02
  1.2306516519210451E-02
  1.2353228406881795E-02
  1.2355948777089095E-02
  1.2398715740438770E-02
  5.3792718858528876E-02
  5.7912183396801639E-02
  7.3983631759326242E-03
  7.3995620032455793E-03
  7.3770720051184076E-03
  7.4004940625514307E-03
  3.4146177535059101E-04
  3.4105906044104551E-04
  3.5397579163725973E-04
  3.6094261894428331E-04
  3.4807051368799364E-04
  3.4215418972557998E-04
  3.5405227816925260E-04
  3.5507399033929919E-04
  3.3594422087268039E-02
  3.3793140186225347E-02
  3.3764465597314962E-02
  7.2179953076828502E-03
  7.2385591750035944E-03
  6.6386118736170823E-03
  6.6548073166103469E-03
  7.2227016734893188E-03
  6.6428897251135550E-03
  7.2953607871435507E-03
  6.7235157522385607E-03
  6.0730336443119825E-03
  6.0720066069114304E-03
  1.3922267834280799E-02
  1.3878978586833790E-02
  1.3916960390861486E-02
  1.3908183599183967E-02
  2.2646561289619834E-02
  2.2603624102146416E-02
  2.2779835806171274E-02
  2.2595219312207530E-02
  9.9504440246799067E-03
  9.9409817645683598E-03
  4.1327055286845805E-02
  4.5502186095282102E-02
  5.9484112166846161E-02
  1.6299840335857720E-02
  1.6248982666501322E-02
  1.6287137435324801E-02
  4.8263327564575673E-02
  4.8129706764444655E-02
  4.9386272716359904E-02
  4.9196453423088489E-02
  4.9286405058390423E-02
  5.7562063288916165E-02
  6.0327994261656727E-02
  6.0219259392914413E-02
  4.6816674073045329E-02
  4.6759224606966535E-02
  5.3680725147495799E-02
  8.0795807893502074E-04
  8.0871622272300813E-04
  8.1091843885082882E-04
  8.0996232522121303E-04
  6.2264777951102100E-02
  4.3463682740443191E-03
  4.2510955736267814E-03
  5.4066718827290486E-02
  5.6537944901864950E-02
  1.0929008477720485E-02
  1.1033767547052070E-02
  1.1066110477541021E-02
  1.1055922496272267E-02
  6.2044680129679210E-02
  6.2029478152444049E-02
  4.2649690659352896E-02
  5.6077212664566972E-04
  5.6014296657475699E-04
  5.5235013759167130E-04
  5.5634935286094308E-04
  5.7097072253002048E-04
  5.6238766605604747E-04
  5.5242842178348107E-04
  5.5525100039451861E-04
  5.5114125629739101E-02
  5.3051138406420326E-02
  4.9017389244160381E-02
  6.0741785939287349E-02
  6.0764421947038870E-02
  6.2367112918303373E-02
  1.3673865781140849E-02
  1.3647571737215989E-02
  1.3677038426447992E-02
  1.3664688989885813E-02
  4.2945856191803772E-02
  4.2961391146983226E-02
  4.3009808861420980E-02
  7.3325130312625964E-03
  7.3188265399468776E-03
  7.3380529004787995E-03
  7.3384803127161807E-03
  3.2728893856811631E-02
  3.2688101219092713E-02
  3.2552328730980490E-02
  3.1097813436224999E-02
  3.1066033391900099E-02
  3.0983028672681146E-02
  5.9318400962178462E-02
  3.4557981775794742E-02
  4.8265949339767371E-03
  4.8387901201722549E-03
  4.8407520186972437E-03
  4.6128855581212824E-02
  2.1374731464279942E-02
  2.1361167166488889E-02
  2.1596714347357968E-02
  2.1357147021523304E-02
  2.3392349657066370E-02
  2.3348547114027469E-02
  2.3304844893058334E-02
  2.3341712233862562E-02
  3.7516550515925930E-02
  3.7419472146766670E-02
  3.7435106640160566E-02
  5.6598426290019641E-02
  5.1822654229119823E-02
  4.5474903123991051E-02
  5.4395131782545569E-02
  5.3499775434902398E-02
  2.8047656251354424E-02
  6.1824898879174556E-02
  5.3954218129446160E-02
  3.4017856649098156E-02
  5.4623491656157985E-02
  5.4699576916486532E-02
  2.8672106521948626E-02
  5.1335937797522366E-02
  4.3366624703585870E-02
  4.3331492813971119E-02
  4.3224777106964735E-02
  3.2652724177970452E-02
  3.2492246521017239E-02
  3.1845682908843723E-02
  3.1837049829233230E-02
  2.8371253809825796E-02
  2.8437182877656932E-02
  2.8405890431846856E-02
  3.3947124732572644E-02
  5.4134967312340888E-02
  6.2230248823280938E-02
  1.3851338732651326E-02
  1.3798767892568597E-02
  1.3835692560718399E-02
  1.3798811258747977E-02
  6.0852179861839696E-02
  4.7122224637110847E-02
  2.4897046238822586E-02
  6.7567643100069170E-03
  6.8048175831497207E-03
  4.9728909114681114E-02
  2.9759709019815891E-02
  6.2755299383606314E-02
  5.6759188219588523E-02
  5.1239553960838097E-02
  5.8362886075123077E-02
  5.9867970515722256E-02
  4.7464656723145079E-02
  4.7368343301040131E-02
  4.9416907284195531E-02
  3.3509587871504889E-02
  3.3480931660411974E-02
  4.2874859444798616E-02
  4.2737968103894054E-02
  4.2642246996147368E-02
  5.0513606101175397E-02
  3.4836313391571783E-02
  5.5649896451345091E-02
  1.2520430151494366E-02
  1.2481508894560924E-02
  1.2489811699757531E-02
  1.2496932600100791E-02
  6.1936643454378389E-02
  4.7492972966040617E-02
  4.7082391835758131E-02
  5.8461568590588632E-02
  5.8281784182453757E-02
  1.8951635919571365E-02
  1.8986268260268894E-02
  1.8988378710120046E-02
  3.7149638928475399E-02
  3.4564232355328982E-02
  1.8986888479980972E-02
  2.5603621199406887E-02
  5.2736508452071715E-02
  5.2852639414169532E-02
  5.1978640324775782E-02
  5.1817397895968981E-02
  4.3947578315050972E-02
  5.6990601626294157E-02
  4.5698709258508816E-02
  4.5616336091588480E-02
  4.5528129436015183E-02