# vtk DataFile Version 3.0
VTK datafile generated by Trushant
ASCII
DATASET UNSTRUCTURED_GRID
POINTS 121 double
  0.0000000000000000E+00	  0.0000000000000000E+00	  0.0000000000000000E+00
  0.0000000000000000E+00	  1.0000000000000001E-01	  0.0000000000000000E+00
  0.0000000000000000E+00	  2.0000000000000001E-01	  0.0000000000000000E+00
  0.0000000000000000E+00	  3.0000000000000004E-01	  0.0000000000000000E+00
  0.0000000000000000E+00	  4.0000000000000002E-01	  0.0000000000000000E+00
  0.0000000000000000E+00	  5.0000000000000000E-01	  0.0000000000000000E+00
  0.0000000000000000E+00	  6.0000000000000009E-01	  0.0000000000000000E+00
  0.0000000000000000E+00	  7.0000000000000007E-01	  0.0000000000000000E+00
  0.0000000000000000E+00	  8.0000000000000004E-01	  0.0000000000000000E+00
  0.0000000000000000E+00	  9.0000000000000002E-01	  0.0000000000000000E+00
  0.0000000000000000E+00	  1.0000000000000000E+00	  0.0000000000000000E+00
  1.0000000000000001E-01	  0.0000000000000000E+00	  0.0000000000000000E+00
  1.0000000000000001E-01	  1.0000000000000001E-01	  0.0000000000000000E+00
  1.0000000000000001E-01	  2.0000000000000001E-01	  0.0000000000000000E+00
  1.0000000000000001E-01	  3.0000000000000004E-01	  0.0000000000000000E+00
  1.0000000000000001E-01	  4.0000000000000002E-01	  0.0000000000000000E+00
  1.0000000000000001E-01	  5.0000000000000000E-01	  0.0000000000000000E+00
  1.0000000000000001E-01	  6.0000000000000009E-01	  0.0000000000000000E+00
  1.0000000000000001E-01	  7.0000000000000007E-01	  0.0000000000000000E+00
  1.0000000000000001E-01	  8.0000000000000004E-01	  0.0000000000000000E+00
  1.0000000000000001E-01	  9.0000000000000002E-01	  0.0000000000000000E+00
  1.0000000000000001E-01	  1.0000000000000000E+00	  0.0000000000000000E+00
  2.0000000000000001E-01	  0.0000000000000000E+00	  0.0000000000000000E+00
  2.0000000000000001E-01	  1.0000000000000001E-01	  0.0000000000000000E+00
  2.0000000000000001E-01	  2.0000000000000001E-01	  0.0000000000000000E+00
  2.0000000000000001E-01	  3.0000000000000004E-01	  0.0000000000000000E+00
  2.0000000000000001E-01	  4.0000000000000002E-01	  0.0000000000000000E+00
  2.0000000000000001E-01	  5.0000000000000000E-01	  0.0000000000000000E+00
  2.0000000000000001E-01	  6.0000000000000009E-01	  0.0000000000000000E+00
  2.0000000000000001E-01	  7.0000000000000007E-01	  0.0000000000000000E+00
  2.0000000000000001E-01	  8.0000000000000004E-01	  0.0000000000000000E+00
  2.0000000000000001E-01	  9.0000000000000002E-01	  0.0000000000000000E+00
  2.0000000000000001E-01	  1.0000000000000000E+00	  0.0000000000000000E+00
  3.0000000000000004E-01	  0.0000000000000000E+00	  0.0000000000000000E+00
  3.0000000000000004E-01	  1.0000000000000001E-01	  0.0000000000000000E+00
  3.0000000000000004E-01	  2.0000000000000001E-01	  0.0000000000000000E+00
  3.0000000000000004E-01	  3.0000000000000004E-01	  0.0000000000000000E+00
  3.0000000000000004E-01	  4.0000000000000002E-01	  0.0000000000000000E+00
  3.0000000000000004E-01	  5.0000000000000000E-01	  0.0000000000000000E+00
  3.0000000000000004E-01	  6.0000000000000009E-01	  0.0000000000000000E+00
  3.0000000000000004E-01	  7.0000000000000007E-01	  0.0000000000000000E+00
  3.0000000000000004E-01	  8.0000000000000004E-01	  0.0000000000000000E+00
  3.0000000000000004E-01	  9.0000000000000002E-01	  0.0000000000000000E+00
  3.0000000000000004E-01	  1.0000000000000000E+00	  0.0000000000000000E+00
  4.0000000000000002E-01	  0.0000000000000000E+00	  0.0000000000000000E+00
  4.0000000000000002E-01	  1.0000000000000001E-01	  0.0000000000000000E+00
  4.0000000000000002E-01	  2.0000000000000001E-01	  0.0000000000000000E+00
  4.0000000000000002E-01	  3.0000000000000004E-01	  0.0000000000000000E+00
  4.0000000000000002E-01	  4.0000000000000002E-01	  0.0000000000000000E+00
  4.0000000000000002E-01	  5.0000000000000000E-01	  0.0000000000000000E+00
  4.0000000000000002E-01	  6.0000000000000009E-01	  0.0000000000000000E+00
  4.0000000000000002E-01	  7.0000000000000007E-01	  0.0000000000000000E+00
  4.0000000000000002E-01	  8.0000000000000004E-01	  0.0000000000000000E+00
  4.0000000000000002E-01	  9.0000000000000002E-01	  0.0000000000000000E+00
  4.0000000000000002E-01	  1.0000000000000000E+00	  0.0000000000000000E+00
  5.0000000000000000E-01	  0.0000000000000000E+00	  0.0000000000000000E+00
  5.0000000000000000E-01	  1.0000000000000001E-01	  0.0000000000000000E+00
  5.0000000000000000E-01	  2.0000000000000001E-01	  0.0000000000000000E+00
  5.0000000000000000E-01	  3.0000000000000004E-01	  0.0000000000000000E+00
  5.0000000000000000E-01	  4.0000000000000002E-01	  0.0000000000000000E+00
  5.0000000000000000E-01	  5.0000000000000000E-01	  0.0000000000000000E+00
  5.0000000000000000E-01	  6.0000000000000009E-01	  0.0000000000000000E+00
  5.0000000000000000E-01	  7.0000000000000007E-01	  0.0000000000000000E+00
  5.0000000000000000E-01	  8.0000000000000004E-01	  0.0000000000000000E+00
  5.0000000000000000E-01	  9.0000000000000002E-01	  0.0000000000000000E+00
  5.0000000000000000E-01	  1.0000000000000000E+00	  0.0000000000000000E+00
  6.0000000000000009E-01	  0.0000000000000000E+00	  0.0000000000000000E+00
  6.0000000000000009E-01	  1.0000000000000001E-01	  0.0000000000000000E+00
  6.0000000000000009E-01	  2.0000000000000001E-01	  0.0000000000000000E+00
  6.0000000000000009E-01	  3.0000000000000004E-01	  0.0000000000000000E+00
  6.0000000000000009E-01	  4.0000000000000002E-01	  0.0000000000000000E+00
  6.0000000000000009E-01	  5.0000000000000000E-01	  0.0000000000000000E+00
  6.0000000000000009E-01	  6.0000000000000009E-01	  0.0000000000000000E+00
  6.0000000000000009E-01	  7.0000000000000007E-01	  0.0000000000000000E+00
  6.0000000000000009E-01	  8.0000000000000004E-01	  0.0000000000000000E+00
  6.0000000000000009E-01	  9.0000000000000002E-01	  0.0000000000000000E+00
  6.0000000000000009E-01	  1.0000000000000000E+00	  0.0000000000000000E+00
  7.0000000000000007E-01	  0.0000000000000000E+00	  0.0000000000000000E+00
  7.0000000000000007E-01	  1.0000000000000001E-01	  0.0000000000000000E+00
  7.0000000000000007E-01	  2.0000000000000001E-01	  0.0000000000000000E+00
  7.0000000000000007E-01	  3.0000000000000004E-01	  0.0000000000000000E+00
  7.0000000000000007E-01	  4.0000000000000002E-01	  0.0000000000000000E+00
  7.0000000000000007E-01	  5.0000000000000000E-01	  0.0000000000000000E+00
  7.0000000000000007E-01	  6.0000000000000009E-01	  0.0000000000000000E+00
  7.0000000000000007E-01	  7.0000000000000007E-01	  0.0000000000000000E+00
  7.0000000000000007E-01	  8.0000000000000004E-01	  0.0000000000000000E+00
  7.0000000000000007E-01	  9.0000000000000002E-01	  0.0000000000000000E+00
  7.0000000000000007E-01	  1.0000000000000000E+00	  0.0000000000000000E+00
  8.0000000000000004E-01	  0.0000000000000000E+00	  0.0000000000000000E+00
  8.0000000000000004E-01	  1.0000000000000001E-01	  0.0000000000000000E+00
  8.0000000000000004E-01	  2.0000000000000001E-01	  0.0000000000000000E+00
  8.0000000000000004E-01	  3.0000000000000004E-01	  0.0000000000000000E+00
  8.0000000000000004E-01	  4.0000000000000002E-01	  0.0000000000000000E+00
  8.0000000000000004E-01	  5.0000000000000000E-01	  0.0000000000000000E+00
  8.0000000000000004E-01	  6.0000000000000009E-01	  0.0000000000000000E+00
  8.0000000000000004E-01	  7.0000000000000007E-01	  0.0000000000000000E+00
  8.0000000000000004E-01	  8.0000000000000004E-01	  0.0000000000000000E+00
  8.0000000000000004E-01	  9.0000000000000002E-01	  0.0000000000000000E+00
  8.0000000000000004E-01	  1.0000000000000000E+00	  0.0000000000000000E+00
  9.0000000000000002E-01	  0.0000000000000000E+00	  0.0000000000000000E+00
  9.0000000000000002E-01	  1.0000000000000001E-01	  0.0000000000000000E+00
  9.0000000000000002E-01	  2.0000000000000001E-01	  0.0000000000000000E+00
  9.0000000000000002E-01	  3.0000000000000004E-01	  0.0000000000000000E+00
  9.0000000000000002E-01	  4.0000000000000002E-01	  0.0000000000000000E+00
  9.0000000000000002E-01	  5.0000000000000000E-01	  0.0000000000000000E+00
  9.0000000000000002E-01	  6.0000000000000009E-01	  0.0000000000000000E+00
  9.0000000000000002E-01	  7.0000000000000007E-01	  0.0000000000000000E+00
  9.0000000000000002E-01	  8.0000000000000004E-01	  0.0000000000000000E+00
  9.0000000000000002E-01	  9.0000000000000002E-01	  0.0000000000000000E+00
  9.0000000000000002E-01	  1.0000000000000000E+00	  0.0000000000000000E+00
  1.0000000000000000E+00	  0.0000000000000000E+00	  0.0000000000000000E+00
  1.0000000000000000E+00	  1.0000000000000001E-01	  0.0000000000000000E+00
  1.0000000000000000E+00	  2.0000000000000001E-01	  0.0000000000000000E+00
  1.0000000000000000E+00	  3.0000000000000004E-01	  0.0000000000000000E+00
  1.0000000000000000E+00	  4.0000000000000002E-01	  0.0000000000000000E+00
  1.0000000000000000E+00	  5.0000000000000000E-01	  0.0000000000000000E+00
  1.0000000000000000E+00	  6.0000000000000009E-01	  0.0000000000000000E+00
  1.0000000000000000E+00	  7.0000000000000007E-01	  0.0000000000000000E+00
  1.0000000000000000E+00	  8.0000000000000004E-01	  0.0000000000000000E+00
  1.0000000000000000E+00	  9.0000000000000002E-01	  0.0000000000000000E+00
  1.0000000000000000E+00	  1.0000000000000000E+00	  0.0000000000000000E+00
CELLS 100 500
4	0	1	12	11	
4	1	2	13	12	
4	2	3	14	13	
4	3	4	15	14	
4	4	5	16	15	
4	5	6	17	16	
4	6	7	18	17	
4	7	8	19	18	
4	8	9	20	19	
4	9	10	21	20	
4	11	12	23	22	
4	12	13	24	23	
4	13	14	25	24	
4	14	15	26	25	
4	15	16	27	26	
4	16	17	28	27	
4	17	18	29	28	
4	18	19	30	29	
4	19	20	31	30	
4	20	21	32	31	
4	22	23	34	33	
4	23	24	35	34	
4	24	25	36	35	
4	25	26	37	36	
4	26	27	38	37	
4	27	28	39	38	
4	28	29	40	39	
4	29	30	41	40	
4	30	31	42	41	
4	31	32	43	42	
4	33	34	45	44	
4	34	35	46	45	
4	35	36	47	46	
4	36	37	48	47	
4	37	38	49	48	
4	38	39	50	49	
4	39	40	51	50	
4	40	41	52	51	
4	41	42	53	52	
4	42	43	54	53	
4	44	45	56	55	
4	45	46	57	56	
4	46	47	58	57	
4	47	48	59	58	
4	48	49	60	59	
4	49	50	61	60	
4	50	51	62	61	
4	51	52	63	62	
4	52	53	64	63	
4	53	54	65	64	
4	55	56	67	66	
4	56	57	68	67	
4	57	58	69	68	
4	58	59	70	69	
4	59	60	71	70	
4	60	61	72	71	
4	61	62	73	72	
4	62	63	74	73	
4	63	64	75	74	
4	64	65	76	75	
4	66	67	78	77	
4	67	68	79	78	
4	68	69	80	79	
4	69	70	81	80	
4	70	71	82	81	
4	71	72	83	82	
4	72	73	84	83	
4	73	74	85	84	
4	74	75	86	85	
4	75	76	87	86	
4	77	78	89	88	
4	78	79	90	89	
4	79	80	91	90	
4	80	81	92	91	
4	81	82	93	92	
4	82	83	94	93	
4	83	84	95	94	
4	84	85	96	95	
4	85	86	97	96	
4	86	87	98	97	
4	88	89	100	99	
4	89	90	101	100	
4	90	91	102	101	
4	91	92	103	102	
4	92	93	104	103	
4	93	94	105	104	
4	94	95	106	105	
4	95	96	107	106	
4	96	97	108	107	
4	97	98	109	108	
4	99	100	111	110	
4	100	101	112	111	
4	101	102	113	112	
4	102	103	114	113	
4	103	104	115	114	
4	104	105	116	115	
4	105	106	117	116	
4	106	107	118	117	
4	107	108	119	118	
4	108	109	120	119	
CELL_TYPES 100
9
9
9
9
9
9
9
9
9
9
9
9
9
9
9
9
9
9
9
9
9
9
9
9
9
9
9
9
9
9
9
9
9
9
9
9
9
9
9
9
9
9
9
9
9
9
9
9
9
9
9
9
9
9
9
9
9
9
9
9
9
9
9
9
9
9
9
9
9
9
9
9
9
9
9
9
9
9
9
9
9
9
9
9
9
9
9
9
9
9
9
9
9
9
9
9
9
9
9
9
CELL_DATA 100
SCALARS Temperature double
LOOKUP_TABLE default
  6.4805988327737865E+01
  8.3532166557689749E+01
  8.9597762819184425E+01
  9.1902341971851385E+01
  9.2747431063539324E+01
  9.2747431082482294E+01
  9.1902342023622438E+01
  8.9597762889021084E+01
  8.3532166622353444E+01
  6.4805988357673897E+01
  4.5303763474440856E+01
  6.3257081794937584E+01
  7.2554305791052585E+01
  7.7166516249480168E+01
  7.9087382557372734E+01
  7.9087382611459958E+01
  7.7166516397298366E+01
  7.2554305990445272E+01
  6.3257081979747440E+01
  4.5303763560208672E+01
  3.8455747402939970E+01
  5.1638091694406150E+01
  6.0195862787328210E+01
  6.5122035263632327E+01
  6.7348200931913794E+01
  6.7348201015009721E+01
  6.5122035490727498E+01
  6.0195863093639623E+01
  5.1638091978428690E+01
  3.8455747534886221E+01
  3.5336882070524389E+01
  4.4643675279138876E+01
  5.1469019098249774E+01
  5.5777561924117400E+01
  5.7835185786790859E+01
  5.7835185890143890E+01
  5.5777562206578310E+01
  5.1469019479239350E+01
  4.4643675632517798E+01
  3.5336882234816912E+01
  3.3584987943490077E+01
  4.0130708839363628E+01
  4.5258977240724825E+01
  4.8684008553241625E+01
  5.0379795473528844E+01
  5.0379795586667562E+01
  4.8684008862457489E+01
  4.5258977657819116E+01
  4.0130709226351463E+01
  3.3584988123533861E+01
  3.2457349101572134E+01
  3.7035195521003018E+01
  4.0752173367194679E+01
  4.3319700647135932E+01
  4.4620193110669838E+01
  4.4620193222422373E+01
  4.3319700952574543E+01
  4.0752173779213258E+01
  3.7035195903396939E+01
  3.2457349279598937E+01
  3.1666562329577740E+01
  3.4800551382204901E+01
  3.7394820924121184E+01
  3.9222428591908475E+01
  4.0161084201474587E+01
  4.0161084301050352E+01
  3.9222428864072214E+01
  3.7394821291257216E+01
  3.4800551723041750E+01
  3.1666562488367926E+01
  3.1074911414801239E+01
  3.3105627281179338E+01
  3.4804131104792702E+01
  3.6014109491157171E+01
  3.6640631756079230E+01
  3.6640631834099416E+01
  3.6014109704398798E+01
  3.4804131392422647E+01
  3.3105627548260898E+01
  3.1074911539316240E+01
  3.0602367654564926E+01
  3.1742915620843895E+01
  3.2701967286995469E+01
  3.3389247185445761E+01
  3.3746702213570785E+01
  3.3746702263064101E+01
  3.3389247320721921E+01
  3.2701967469447183E+01
  3.1742915790398378E+01
  3.0602367733746039E+01
  3.0194011351854673E+01
  3.0561700493082022E+01
  3.0871575563975817E+01
  3.1094210138824824E+01
  3.1210228061555906E+01
  3.1210228078481897E+01
  3.1094210185093544E+01
  3.0871575626381215E+01
  3.0561700551159028E+01
  3.0194011379043811E+01
POINT_DATA 121
SCALARS Temperature double
LOOKUP_TABLE default
  6.4805988327737865E+01
  7.4169077442713814E+01
  8.6564964688437087E+01
  9.0750052395517898E+01
  9.2324886517695361E+01
  9.2747431073010802E+01
  9.2324886553052366E+01
  9.0750052456321754E+01
  8.6564964755687257E+01
  7.4169077490013663E+01
  6.4805988357673897E+01
  5.5054875901089360E+01
  6.4224750038701515E+01
  7.7235329240716084E+01
  8.2805231707892148E+01
  8.5225917960560906E+01
  8.5917406828713595E+01
  8.5225918028715768E+01
  8.2805231825096783E+01
  7.7235329370391824E+01
  6.4224750129995854E+01
  5.5054875958941288E+01
  4.1879755438690410E+01
  4.9663671091681145E+01
  6.1911335516931132E+01
  6.8759680022873326E+01
  7.2181033750599752E+01
  7.3217791778939045E+01
  7.2181033878623893E+01
  6.8759680243027688E+01
  6.1911335760565251E+01
  4.9663671263317752E+01
  4.1879755547547447E+01
  3.6896314736732172E+01
  4.2518599111752337E+01
  5.1986662214780743E+01
  5.8141119768331933E+01
  6.1520745976613604E+01
  6.2591693405964563E+01
  6.1520746150614862E+01
  5.8141120067546197E+01
  5.1986662545956371E+01
  4.2518599345162400E+01
  3.6896314884851570E+01
  3.4460935007007237E+01
  3.8424063533129242E+01
  4.5375595114369276E+01
  5.0297391704083410E+01
  5.3169137934419687E+01
  5.4107490684282787E+01
  5.3169138136461818E+01
  5.0297392051523566E+01
  4.5375595498981923E+01
  3.8424063804305000E+01
  3.4460935179175387E+01
  3.3021168522531106E+01
  3.5802060351357206E+01
  4.0794263742071536E+01
  4.4503714952074262E+01
  4.6750924446144055E+01
  4.7499994348322154E+01
  4.6750924656030492E+01
  4.4503715313016095E+01
  4.0794264141695194E+01
  3.5802060633220300E+01
  3.3021168701566395E+01
  3.2061955715574939E+01
  3.3989914583589439E+01
  3.7495685298630946E+01
  4.0172280882590073E+01
  4.1830851637797217E+01
  4.2390638708904291E+01
  4.1830851835029868E+01
  4.0172281221779308E+01
  3.7495685674227289E+01
  3.3989914848601394E+01
  3.2061955883983430E+01
  3.1370736872189486E+01
  3.2661913101940804E+01
  3.5026282673074526E+01
  3.6858872527994876E+01
  3.8009563510154862E+01
  3.8400858023175893E+01
  3.8009563675905198E+01
  3.6858872813037721E+01
  3.5026282988745621E+01
  3.2661913324746706E+01
  3.1370737013842085E+01
  3.0838639534683079E+01
  3.1631455492847344E+01
  3.3088660323452849E+01
  3.4227363767097785E+01
  3.4947672661563232E+01
  3.5193667016703380E+01
  3.4947672780571061E+01
  3.4227363971747636E+01
  3.3088660550132275E+01
  3.1631455652930391E+01
  3.0838639636531141E+01
  3.0398189503209792E+01
  3.0775248780086372E+01
  3.1469539741224299E+01
  3.2014250043810470E+01
  3.2360096899849324E+01
  3.2478465154168177E+01
  3.2360096961840370E+01
  3.2014250150410966E+01
  3.1469539859346455E+01
  3.0775248863586814E+01
  3.0398189556394925E+01
  3.0194011351854673E+01
  3.0377855922468338E+01
  3.0716638028528923E+01
  3.0982892851400319E+01
  3.1152219100190365E+01
  3.1210228070018900E+01
  3.1152219131787724E+01
  3.0982892905737380E+01
  3.0716638088770125E+01
  3.0377855965101418E+01
  3.0194011379043815E+01
