# vtk DataFile Version 3.0
VTK datafile generated by Trushant
ASCII
DATASET UNSTRUCTURED_GRID
POINTS 121 double
  0.0000000000000000E+00	  0.0000000000000000E+00	  0.0000000000000000E+00
  0.0000000000000000E+00	  1.0000000000000001E-01	  0.0000000000000000E+00
  0.0000000000000000E+00	  2.0000000000000001E-01	  0.0000000000000000E+00
  0.0000000000000000E+00	  3.0000000000000004E-01	  0.0000000000000000E+00
  0.0000000000000000E+00	  4.0000000000000002E-01	  0.0000000000000000E+00
  0.0000000000000000E+00	  5.0000000000000000E-01	  0.0000000000000000E+00
  0.0000000000000000E+00	  6.0000000000000009E-01	  0.0000000000000000E+00
  0.0000000000000000E+00	  7.0000000000000007E-01	  0.0000000000000000E+00
  0.0000000000000000E+00	  8.0000000000000004E-01	  0.0000000000000000E+00
  0.0000000000000000E+00	  9.0000000000000002E-01	  0.0000000000000000E+00
  0.0000000000000000E+00	  1.0000000000000000E+00	  0.0000000000000000E+00
  1.0000000000000001E-01	  0.0000000000000000E+00	  0.0000000000000000E+00
  1.0000000000000001E-01	  1.0000000000000001E-01	  0.0000000000000000E+00
  1.0000000000000001E-01	  2.0000000000000001E-01	  0.0000000000000000E+00
  1.0000000000000001E-01	  3.0000000000000004E-01	  0.0000000000000000E+00
  1.0000000000000001E-01	  4.0000000000000002E-01	  0.0000000000000000E+00
  1.0000000000000001E-01	  5.0000000000000000E-01	  0.0000000000000000E+00
  1.0000000000000001E-01	  6.0000000000000009E-01	  0.0000000000000000E+00
  1.0000000000000001E-01	  7.0000000000000007E-01	  0.0000000000000000E+00
  1.0000000000000001E-01	  8.0000000000000004E-01	  0.0000000000000000E+00
  1.0000000000000001E-01	  9.0000000000000002E-01	  0.0000000000000000E+00
  1.0000000000000001E-01	  1.0000000000000000E+00	  0.0000000000000000E+00
  2.0000000000000001E-01	  0.0000000000000000E+00	  0.0000000000000000E+00
  2.0000000000000001E-01	  1.0000000000000001E-01	  0.0000000000000000E+00
  2.0000000000000001E-01	  2.0000000000000001E-01	  0.0000000000000000E+00
  2.0000000000000001E-01	  3.0000000000000004E-01	  0.0000000000000000E+00
  2.0000000000000001E-01	  4.0000000000000002E-01	  0.0000000000000000E+00
  2.0000000000000001E-01	  5.0000000000000000E-01	  0.0000000000000000E+00
  2.0000000000000001E-01	  6.0000000000000009E-01	  0.0000000000000000E+00
  2.0000000000000001E-01	  7.0000000000000007E-01	  0.0000000000000000E+00
  2.0000000000000001E-01	  8.0000000000000004E-01	  0.0000000000000000E+00
  2.0000000000000001E-01	  9.0000000000000002E-01	  0.0000000000000000E+00
  2.0000000000000001E-01	  1.0000000000000000E+00	  0.0000000000000000E+00
  3.0000000000000004E-01	  0.0000000000000000E+00	  0.0000000000000000E+00
  3.0000000000000004E-01	  1.0000000000000001E-01	  0.0000000000000000E+00
  3.0000000000000004E-01	  2.0000000000000001E-01	  0.0000000000000000E+00
  3.0000000000000004E-01	  3.0000000000000004E-01	  0.0000000000000000E+00
  3.0000000000000004E-01	  4.0000000000000002E-01	  0.0000000000000000E+00
  3.0000000000000004E-01	  5.0000000000000000E-01	  0.0000000000000000E+00
  3.0000000000000004E-01	  6.0000000000000009E-01	  0.0000000000000000E+00
  3.0000000000000004E-01	  7.0000000000000007E-01	  0.0000000000000000E+00
  3.0000000000000004E-01	  8.0000000000000004E-01	  0.0000000000000000E+00
  3.0000000000000004E-01	  9.0000000000000002E-01	  0.0000000000000000E+00
  3.0000000000000004E-01	  1.0000000000000000E+00	  0.0000000000000000E+00
  4.0000000000000002E-01	  0.0000000000000000E+00	  0.0000000000000000E+00
  4.0000000000000002E-01	  1.0000000000000001E-01	  0.0000000000000000E+00
  4.0000000000000002E-01	  2.0000000000000001E-01	  0.0000000000000000E+00
  4.0000000000000002E-01	  3.0000000000000004E-01	  0.0000000000000000E+00
  4.0000000000000002E-01	  4.0000000000000002E-01	  0.0000000000000000E+00
  4.0000000000000002E-01	  5.0000000000000000E-01	  0.0000000000000000E+00
  4.0000000000000002E-01	  6.0000000000000009E-01	  0.0000000000000000E+00
  4.0000000000000002E-01	  7.0000000000000007E-01	  0.0000000000000000E+00
  4.0000000000000002E-01	  8.0000000000000004E-01	  0.0000000000000000E+00
  4.0000000000000002E-01	  9.0000000000000002E-01	  0.0000000000000000E+00
  4.0000000000000002E-01	  1.0000000000000000E+00	  0.0000000000000000E+00
  5.0000000000000000E-01	  0.0000000000000000E+00	  0.0000000000000000E+00
  5.0000000000000000E-01	  1.0000000000000001E-01	  0.0000000000000000E+00
  5.0000000000000000E-01	  2.0000000000000001E-01	  0.0000000000000000E+00
  5.0000000000000000E-01	  3.0000000000000004E-01	  0.0000000000000000E+00
  5.0000000000000000E-01	  4.0000000000000002E-01	  0.0000000000000000E+00
  5.0000000000000000E-01	  5.0000000000000000E-01	  0.0000000000000000E+00
  5.0000000000000000E-01	  6.0000000000000009E-01	  0.0000000000000000E+00
  5.0000000000000000E-01	  7.0000000000000007E-01	  0.0000000000000000E+00
  5.0000000000000000E-01	  8.0000000000000004E-01	  0.0000000000000000E+00
  5.0000000000000000E-01	  9.0000000000000002E-01	  0.0000000000000000E+00
  5.0000000000000000E-01	  1.0000000000000000E+00	  0.0000000000000000E+00
  6.0000000000000009E-01	  0.0000000000000000E+00	  0.0000000000000000E+00
  6.0000000000000009E-01	  1.0000000000000001E-01	  0.0000000000000000E+00
  6.0000000000000009E-01	  2.0000000000000001E-01	  0.0000000000000000E+00
  6.0000000000000009E-01	  3.0000000000000004E-01	  0.0000000000000000E+00
  6.0000000000000009E-01	  4.0000000000000002E-01	  0.0000000000000000E+00
  6.0000000000000009E-01	  5.0000000000000000E-01	  0.0000000000000000E+00
  6.0000000000000009E-01	  6.0000000000000009E-01	  0.0000000000000000E+00
  6.0000000000000009E-01	  7.0000000000000007E-01	  0.0000000000000000E+00
  6.0000000000000009E-01	  8.0000000000000004E-01	  0.0000000000000000E+00
  6.0000000000000009E-01	  9.0000000000000002E-01	  0.0000000000000000E+00
  6.0000000000000009E-01	  1.0000000000000000E+00	  0.0000000000000000E+00
  7.0000000000000007E-01	  0.0000000000000000E+00	  0.0000000000000000E+00
  7.0000000000000007E-01	  1.0000000000000001E-01	  0.0000000000000000E+00
  7.0000000000000007E-01	  2.0000000000000001E-01	  0.0000000000000000E+00
  7.0000000000000007E-01	  3.0000000000000004E-01	  0.0000000000000000E+00
  7.0000000000000007E-01	  4.0000000000000002E-01	  0.0000000000000000E+00
  7.0000000000000007E-01	  5.0000000000000000E-01	  0.0000000000000000E+00
  7.0000000000000007E-01	  6.0000000000000009E-01	  0.0000000000000000E+00
  7.0000000000000007E-01	  7.0000000000000007E-01	  0.0000000000000000E+00
  7.0000000000000007E-01	  8.0000000000000004E-01	  0.0000000000000000E+00
  7.0000000000000007E-01	  9.0000000000000002E-01	  0.0000000000000000E+00
  7.0000000000000007E-01	  1.0000000000000000E+00	  0.0000000000000000E+00
  8.0000000000000004E-01	  0.0000000000000000E+00	  0.0000000000000000E+00
  8.0000000000000004E-01	  1.0000000000000001E-01	  0.0000000000000000E+00
  8.0000000000000004E-01	  2.0000000000000001E-01	  0.0000000000000000E+00
  8.0000000000000004E-01	  3.0000000000000004E-01	  0.0000000000000000E+00
  8.0000000000000004E-01	  4.0000000000000002E-01	  0.0000000000000000E+00
  8.0000000000000004E-01	  5.0000000000000000E-01	  0.0000000000000000E+00
  8.0000000000000004E-01	  6.0000000000000009E-01	  0.0000000000000000E+00
  8.0000000000000004E-01	  7.0000000000000007E-01	  0.0000000000000000E+00
  8.0000000000000004E-01	  8.0000000000000004E-01	  0.0000000000000000E+00
  8.0000000000000004E-01	  9.0000000000000002E-01	  0.0000000000000000E+00
  8.0000000000000004E-01	  1.0000000000000000E+00	  0.0000000000000000E+00
  9.0000000000000002E-01	  0.0000000000000000E+00	  0.0000000000000000E+00
  9.0000000000000002E-01	  1.0000000000000001E-01	  0.0000000000000000E+00
  9.0000000000000002E-01	  2.0000000000000001E-01	  0.0000000000000000E+00
  9.0000000000000002E-01	  3.0000000000000004E-01	  0.0000000000000000E+00
  9.0000000000000002E-01	  4.0000000000000002E-01	  0.0000000000000000E+00
  9.0000000000000002E-01	  5.0000000000000000E-01	  0.0000000000000000E+00
  9.0000000000000002E-01	  6.0000000000000009E-01	  0.0000000000000000E+00
  9.0000000000000002E-01	  7.0000000000000007E-01	  0.0000000000000000E+00
  9.0000000000000002E-01	  8.0000000000000004E-01	  0.0000000000000000E+00
  9.0000000000000002E-01	  9.0000000000000002E-01	  0.0000000000000000E+00
  9.0000000000000002E-01	  1.0000000000000000E+00	  0.0000000000000000E+00
  1.0000000000000000E+00	  0.0000000000000000E+00	  0.0000000000000000E+00
  1.0000000000000000E+00	  1.0000000000000001E-01	  0.0000000000000000E+00
  1.0000000000000000E+00	  2.0000000000000001E-01	  0.0000000000000000E+00
  1.0000000000000000E+00	  3.0000000000000004E-01	  0.0000000000000000E+00
  1.0000000000000000E+00	  4.0000000000000002E-01	  0.0000000000000000E+00
  1.0000000000000000E+00	  5.0000000000000000E-01	  0.0000000000000000E+00
  1.0000000000000000E+00	  6.0000000000000009E-01	  0.0000000000000000E+00
  1.0000000000000000E+00	  7.0000000000000007E-01	  0.0000000000000000E+00
  1.0000000000000000E+00	  8.0000000000000004E-01	  0.0000000000000000E+00
  1.0000000000000000E+00	  9.0000000000000002E-01	  0.0000000000000000E+00
  1.0000000000000000E+00	  1.0000000000000000E+00	  0.0000000000000000E+00
CELLS 100 500
4	0	1	12	11	
4	1	2	13	12	
4	2	3	14	13	
4	3	4	15	14	
4	4	5	16	15	
4	5	6	17	16	
4	6	7	18	17	
4	7	8	19	18	
4	8	9	20	19	
4	9	10	21	20	
4	11	12	23	22	
4	12	13	24	23	
4	13	14	25	24	
4	14	15	26	25	
4	15	16	27	26	
4	16	17	28	27	
4	17	18	29	28	
4	18	19	30	29	
4	19	20	31	30	
4	20	21	32	31	
4	22	23	34	33	
4	23	24	35	34	
4	24	25	36	35	
4	25	26	37	36	
4	26	27	38	37	
4	27	28	39	38	
4	28	29	40	39	
4	29	30	41	40	
4	30	31	42	41	
4	31	32	43	42	
4	33	34	45	44	
4	34	35	46	45	
4	35	36	47	46	
4	36	37	48	47	
4	37	38	49	48	
4	38	39	50	49	
4	39	40	51	50	
4	40	41	52	51	
4	41	42	53	52	
4	42	43	54	53	
4	44	45	56	55	
4	45	46	57	56	
4	46	47	58	57	
4	47	48	59	58	
4	48	49	60	59	
4	49	50	61	60	
4	50	51	62	61	
4	51	52	63	62	
4	52	53	64	63	
4	53	54	65	64	
4	55	56	67	66	
4	56	57	68	67	
4	57	58	69	68	
4	58	59	70	69	
4	59	60	71	70	
4	60	61	72	71	
4	61	62	73	72	
4	62	63	74	73	
4	63	64	75	74	
4	64	65	76	75	
4	66	67	78	77	
4	67	68	79	78	
4	68	69	80	79	
4	69	70	81	80	
4	70	71	82	81	
4	71	72	83	82	
4	72	73	84	83	
4	73	74	85	84	
4	74	75	86	85	
4	75	76	87	86	
4	77	78	89	88	
4	78	79	90	89	
4	79	80	91	90	
4	80	81	92	91	
4	81	82	93	92	
4	82	83	94	93	
4	83	84	95	94	
4	84	85	96	95	
4	85	86	97	96	
4	86	87	98	97	
4	88	89	100	99	
4	89	90	101	100	
4	90	91	102	101	
4	91	92	103	102	
4	92	93	104	103	
4	93	94	105	104	
4	94	95	106	105	
4	95	96	107	106	
4	96	97	108	107	
4	97	98	109	108	
4	99	100	111	110	
4	100	101	112	111	
4	101	102	113	112	
4	102	103	114	113	
4	103	104	115	114	
4	104	105	116	115	
4	105	106	117	116	
4	106	107	118	117	
4	107	108	119	118	
4	108	109	120	119	
CELL_TYPES 100
9
9
9
9
9
9
9
9
9
9
9
9
9
9
9
9
9
9
9
9
9
9
9
9
9
9
9
9
9
9
9
9
9
9
9
9
9
9
9
9
9
9
9
9
9
9
9
9
9
9
9
9
9
9
9
9
9
9
9
9
9
9
9
9
9
9
9
9
9
9
9
9
9
9
9
9
9
9
9
9
9
9
9
9
9
9
9
9
9
9
9
9
9
9
9
9
9
9
9
9
CELL_DATA 100
SCALARS Temperature double
LOOKUP_TABLE default
  9.9722840648968130E+01
  9.9168521966710443E+01
  9.8609650951890842E+01
  9.8028018163041864E+01
  9.7380300378214372E+01
  9.6574844066140656E+01
  9.5406361214619665E+01
  9.3337625257720617E+01
  8.8667524961956701E+01
  7.4999999955671797E+01
  9.9168521966710458E+01
  9.7510118315710898E+01
  9.5851714744111291E+01
  9.4150139617049973E+01
  9.2298639797166487E+01
  9.0087558863306000E+01
  8.7119336853848509E+01
  8.2614240187850655E+01
  7.4999999638957945E+01
  6.1332474784711280E+01
  9.8609650951890856E+01
  9.5851714744111277E+01
  9.3136950304083612E+01
  9.0422186004403983E+01
  8.7576560573313344E+01
  8.4357414958611386E+01
  8.0369187332302857E+01
  7.4999999130130135E+01
  6.7385758689931762E+01
  5.6662374347586990E+01
  9.8028018163041878E+01
  9.4150139617049945E+01
  9.0422186004403954E+01
  8.6825093839096098E+01
  8.3228001850859712E+01
  7.9396353354796872E+01
  7.4999998622600870E+01
  6.9630810475760086E+01
  6.2880661728726011E+01
  5.4593638285629751E+01
  9.7380300378214372E+01
  9.2298639797166473E+01
  8.7576560573313316E+01
  8.3228001850859712E+01
  7.9113999991306059E+01
  7.4999998309289154E+01
  7.0603643589328001E+01
  6.5642582603840168E+01
  5.9912439556549572E+01
  5.3425155375378800E+01
  9.6574844066140656E+01
  9.0087558863306000E+01
  8.4357414958611386E+01
  7.9396353354796915E+01
  7.4999998309289182E+01
  7.0885996623057167E+01
  6.6771995081841993E+01
  6.2423436973983250E+01
  5.7701358608986069E+01
  5.2619699057111220E+01
  9.5406361214619665E+01
  8.7119336853848523E+01
  8.0369187332302914E+01
  7.4999998622600899E+01
  7.0603643589328016E+01
  6.6771995081841979E+01
  6.3174903375148176E+01
  5.9577811762588219E+01
  5.5849858928388677E+01
  5.1971981320421854E+01
  9.3337625257720575E+01
  8.2614240187850640E+01
  7.4999999130130149E+01
  6.9630810475760100E+01
  6.5642582603840168E+01
  6.2423436973983222E+01
  5.9577811762588219E+01
  5.6863047901688731E+01
  5.4148284084403613E+01
  5.1390348631147461E+01
  8.8667524961956701E+01
  7.4999999638957959E+01
  6.7385758689931805E+01
  6.2880661728726018E+01
  5.9912439556549565E+01
  5.7701358608986048E+01
  5.5849858928388670E+01
  5.4148284084403613E+01
  5.2489880917657722E+01
  5.0831477759821830E+01
  7.4999999955671768E+01
  6.1332474784711259E+01
  5.6662374347586997E+01
  5.4593638285629737E+01
  5.3425155375378793E+01
  5.2619699057111212E+01
  5.1971981320421847E+01
  5.1390348631147454E+01
  5.0831477759821830E+01
  5.0277159253273950E+01
POINT_DATA 121
SCALARS Temperature double
LOOKUP_TABLE default
  9.9722840648968130E+01
  9.9445681307839294E+01
  9.8889086459300657E+01
  9.8318834557466360E+01
  9.7704159270628125E+01
  9.6977572222177514E+01
  9.5990602640380160E+01
  9.4371993236170141E+01
  9.1002575109838659E+01
  8.1833762458814249E+01
  7.4999999955671797E+01
  9.9445681307839280E+01
  9.8892500724524979E+01
  9.7785001494605865E+01
  9.6659880869023496E+01
  9.5464274488868170E+01
  9.4085335776206890E+01
  9.2297025249478708E+01
  8.9619390878509847E+01
  8.4904847511621469E+01
  7.4999999835324431E+01
  6.8166237370191539E+01
  9.8889086459300657E+01
  9.7785001494605879E+01
  9.5587624527004266E+01
  9.3390247667412225E+01
  9.1111881497983447E+01
  8.8580043548099326E+01
  8.5483374502017199E+01
  8.1275690876033039E+01
  7.4999999411717624E+01
  6.5095151865296998E+01
  5.8997424566149128E+01
  9.8318834557466360E+01
  9.6659880869023482E+01
  9.3390247667412197E+01
  9.0201604037996916E+01
  8.7012960566918281E+01
  8.3639582684395336E+01
  7.9780738567077989E+01
  7.4999998890198498E+01
  6.8724307506136995E+01
  6.0380608262968629E+01
  5.5628006316608378E+01
  9.7704159270628139E+01
  9.5464274488868170E+01
  9.1111881497983433E+01
  8.7012960566918281E+01
  8.3098774383030403E+01
  7.9184588376562942E+01
  7.4999998469003714E+01
  7.0219258822882267E+01
  6.4516623591218973E+01
  5.7702973736571032E+01
  5.4009396830504272E+01
  9.6977572222177514E+01
  9.4085335776206861E+01
  8.8580043548099297E+01
  8.3639582684395336E+01
  7.9184588376562971E+01
  7.4999998308235391E+01
  7.0815408400879065E+01
  6.6360414562248337E+01
  6.1419954435839770E+01
  5.5914663149506403E+01
  5.3022427216245013E+01
  9.5990602640380160E+01
  9.2297025249478693E+01
  8.5483374502017199E+01
  7.9780738567078032E+01
  7.4999998469003756E+01
  7.0815408400879093E+01
  6.6901222540472318E+01
  6.2987036798390406E+01
  5.8888116568486552E+01
  5.4535724478726955E+01
  5.2295840188766533E+01
  9.4371993236170127E+01
  8.9619390878509861E+01
  8.1275690876033067E+01
  7.4999998890198498E+01
  7.0219258822882281E+01
  6.6360414562248337E+01
  6.2987036798390406E+01
  5.9798393700503340E+01
  5.6609750669267306E+01
  5.3340118241090401E+01
  5.1681164975784661E+01
  9.1002575109838617E+01
  8.4904847511621441E+01
  7.4999999411717639E+01
  6.8724307506137023E+01
  6.4516623591218973E+01
  6.1419954435839756E+01
  5.8888116568486538E+01
  5.6609750669267314E+01
  5.4412374247038422E+01
  5.2214997848257660E+01
  5.1110913195484649E+01
  8.1833762458814221E+01
  7.4999999835324417E+01
  6.5095151865296998E+01
  6.0380608262968643E+01
  5.7702973736571032E+01
  5.5914663149506403E+01
  5.4535724478726941E+01
  5.3340118241090401E+01
  5.2214997848257653E+01
  5.1107498922643835E+01
  5.0554318506547894E+01
  7.4999999955671768E+01
  6.8166237370191510E+01
  5.8997424566149128E+01
  5.5628006316608364E+01
  5.4009396830504265E+01
  5.3022427216244999E+01
  5.2295840188766533E+01
  5.1681164975784647E+01
  5.1110913195484642E+01
  5.0554318506547887E+01
  5.0277159253273950E+01
