# vtk DataFile Version 3.0
VTK datafile generated by Trushant
ASCII
DATASET UNSTRUCTURED_GRID
POINTS 121 double
  0.0000000000000000E+00	  0.0000000000000000E+00	  0.0000000000000000E+00
  0.0000000000000000E+00	  1.0000000000000001E-01	  0.0000000000000000E+00
  0.0000000000000000E+00	  2.0000000000000001E-01	  0.0000000000000000E+00
  0.0000000000000000E+00	  3.0000000000000004E-01	  0.0000000000000000E+00
  0.0000000000000000E+00	  4.0000000000000002E-01	  0.0000000000000000E+00
  0.0000000000000000E+00	  5.0000000000000000E-01	  0.0000000000000000E+00
  0.0000000000000000E+00	  6.0000000000000009E-01	  0.0000000000000000E+00
  0.0000000000000000E+00	  7.0000000000000007E-01	  0.0000000000000000E+00
  0.0000000000000000E+00	  8.0000000000000004E-01	  0.0000000000000000E+00
  0.0000000000000000E+00	  9.0000000000000002E-01	  0.0000000000000000E+00
  0.0000000000000000E+00	  1.0000000000000000E+00	  0.0000000000000000E+00
  1.0000000000000001E-01	  0.0000000000000000E+00	  0.0000000000000000E+00
  1.0000000000000001E-01	  1.0000000000000001E-01	  0.0000000000000000E+00
  1.0000000000000001E-01	  2.0000000000000001E-01	  0.0000000000000000E+00
  1.0000000000000001E-01	  3.0000000000000004E-01	  0.0000000000000000E+00
  1.0000000000000001E-01	  4.0000000000000002E-01	  0.0000000000000000E+00
  1.0000000000000001E-01	  5.0000000000000000E-01	  0.0000000000000000E+00
  1.0000000000000001E-01	  6.0000000000000009E-01	  0.0000000000000000E+00
  1.0000000000000001E-01	  7.0000000000000007E-01	  0.0000000000000000E+00
  1.0000000000000001E-01	  8.0000000000000004E-01	  0.0000000000000000E+00
  1.0000000000000001E-01	  9.0000000000000002E-01	  0.0000000000000000E+00
  1.0000000000000001E-01	  1.0000000000000000E+00	  0.0000000000000000E+00
  2.0000000000000001E-01	  0.0000000000000000E+00	  0.0000000000000000E+00
  2.0000000000000001E-01	  1.0000000000000001E-01	  0.0000000000000000E+00
  2.0000000000000001E-01	  2.0000000000000001E-01	  0.0000000000000000E+00
  2.0000000000000001E-01	  3.0000000000000004E-01	  0.0000000000000000E+00
  2.0000000000000001E-01	  4.0000000000000002E-01	  0.0000000000000000E+00
  2.0000000000000001E-01	  5.0000000000000000E-01	  0.0000000000000000E+00
  2.0000000000000001E-01	  6.0000000000000009E-01	  0.0000000000000000E+00
  2.0000000000000001E-01	  7.0000000000000007E-01	  0.0000000000000000E+00
  2.0000000000000001E-01	  8.0000000000000004E-01	  0.0000000000000000E+00
  2.0000000000000001E-01	  9.0000000000000002E-01	  0.0000000000000000E+00
  2.0000000000000001E-01	  1.0000000000000000E+00	  0.0000000000000000E+00
  3.0000000000000004E-01	  0.0000000000000000E+00	  0.0000000000000000E+00
  3.0000000000000004E-01	  1.0000000000000001E-01	  0.0000000000000000E+00
  3.0000000000000004E-01	  2.0000000000000001E-01	  0.0000000000000000E+00
  3.0000000000000004E-01	  3.0000000000000004E-01	  0.0000000000000000E+00
  3.0000000000000004E-01	  4.0000000000000002E-01	  0.0000000000000000E+00
  3.0000000000000004E-01	  5.0000000000000000E-01	  0.0000000000000000E+00
  3.0000000000000004E-01	  6.0000000000000009E-01	  0.0000000000000000E+00
  3.0000000000000004E-01	  7.0000000000000007E-01	  0.0000000000000000E+00
  3.0000000000000004E-01	  8.0000000000000004E-01	  0.0000000000000000E+00
  3.0000000000000004E-01	  9.0000000000000002E-01	  0.0000000000000000E+00
  3.0000000000000004E-01	  1.0000000000000000E+00	  0.0000000000000000E+00
  4.0000000000000002E-01	  0.0000000000000000E+00	  0.0000000000000000E+00
  4.0000000000000002E-01	  1.0000000000000001E-01	  0.0000000000000000E+00
  4.0000000000000002E-01	  2.0000000000000001E-01	  0.0000000000000000E+00
  4.0000000000000002E-01	  3.0000000000000004E-01	  0.0000000000000000E+00
  4.0000000000000002E-01	  4.0000000000000002E-01	  0.0000000000000000E+00
  4.0000000000000002E-01	  5.0000000000000000E-01	  0.0000000000000000E+00
  4.0000000000000002E-01	  6.0000000000000009E-01	  0.0000000000000000E+00
  4.0000000000000002E-01	  7.0000000000000007E-01	  0.0000000000000000E+00
  4.0000000000000002E-01	  8.0000000000000004E-01	  0.0000000000000000E+00
  4.0000000000000002E-01	  9.0000000000000002E-01	  0.0000000000000000E+00
  4.0000000000000002E-01	  1.0000000000000000E+00	  0.0000000000000000E+00
  5.0000000000000000E-01	  0.0000000000000000E+00	  0.0000000000000000E+00
  5.0000000000000000E-01	  1.0000000000000001E-01	  0.0000000000000000E+00
  5.0000000000000000E-01	  2.0000000000000001E-01	  0.0000000000000000E+00
  5.0000000000000000E-01	  3.0000000000000004E-01	  0.0000000000000000E+00
  5.0000000000000000E-01	  4.0000000000000002E-01	  0.0000000000000000E+00
  5.0000000000000000E-01	  5.0000000000000000E-01	  0.0000000000000000E+00
  5.0000000000000000E-01	  6.0000000000000009E-01	  0.0000000000000000E+00
  5.0000000000000000E-01	  7.0000000000000007E-01	  0.0000000000000000E+00
  5.0000000000000000E-01	  8.0000000000000004E-01	  0.0000000000000000E+00
  5.0000000000000000E-01	  9.0000000000000002E-01	  0.0000000000000000E+00
  5.0000000000000000E-01	  1.0000000000000000E+00	  0.0000000000000000E+00
  6.0000000000000009E-01	  0.0000000000000000E+00	  0.0000000000000000E+00
  6.0000000000000009E-01	  1.0000000000000001E-01	  0.0000000000000000E+00
  6.0000000000000009E-01	  2.0000000000000001E-01	  0.0000000000000000E+00
  6.0000000000000009E-01	  3.0000000000000004E-01	  0.0000000000000000E+00
  6.0000000000000009E-01	  4.0000000000000002E-01	  0.0000000000000000E+00
  6.0000000000000009E-01	  5.0000000000000000E-01	  0.0000000000000000E+00
  6.0000000000000009E-01	  6.0000000000000009E-01	  0.0000000000000000E+00
  6.0000000000000009E-01	  7.0000000000000007E-01	  0.0000000000000000E+00
  6.0000000000000009E-01	  8.0000000000000004E-01	  0.0000000000000000E+00
  6.0000000000000009E-01	  9.0000000000000002E-01	  0.0000000000000000E+00
  6.0000000000000009E-01	  1.0000000000000000E+00	  0.0000000000000000E+00
  7.0000000000000007E-01	  0.0000000000000000E+00	  0.0000000000000000E+00
  7.0000000000000007E-01	  1.0000000000000001E-01	  0.0000000000000000E+00
  7.0000000000000007E-01	  2.0000000000000001E-01	  0.0000000000000000E+00
  7.0000000000000007E-01	  3.0000000000000004E-01	  0.0000000000000000E+00
  7.0000000000000007E-01	  4.0000000000000002E-01	  0.0000000000000000E+00
  7.0000000000000007E-01	  5.0000000000000000E-01	  0.0000000000000000E+00
  7.0000000000000007E-01	  6.0000000000000009E-01	  0.0000000000000000E+00
  7.0000000000000007E-01	  7.0000000000000007E-01	  0.0000000000000000E+00
  7.0000000000000007E-01	  8.0000000000000004E-01	  0.0000000000000000E+00
  7.0000000000000007E-01	  9.0000000000000002E-01	  0.0000000000000000E+00
  7.0000000000000007E-01	  1.0000000000000000E+00	  0.0000000000000000E+00
  8.0000000000000004E-01	  0.0000000000000000E+00	  0.0000000000000000E+00
  8.0000000000000004E-01	  1.0000000000000001E-01	  0.0000000000000000E+00
  8.0000000000000004E-01	  2.0000000000000001E-01	  0.0000000000000000E+00
  8.0000000000000004E-01	  3.0000000000000004E-01	  0.0000000000000000E+00
  8.0000000000000004E-01	  4.0000000000000002E-01	  0.0000000000000000E+00
  8.0000000000000004E-01	  5.0000000000000000E-01	  0.0000000000000000E+00
  8.0000000000000004E-01	  6.0000000000000009E-01	  0.0000000000000000E+00
  8.0000000000000004E-01	  7.0000000000000007E-01	  0.0000000000000000E+00
  8.0000000000000004E-01	  8.0000000000000004E-01	  0.0000000000000000E+00
  8.0000000000000004E-01	  9.0000000000000002E-01	  0.0000000000000000E+00
  8.0000000000000004E-01	  1.0000000000000000E+00	  0.0000000000000000E+00
  9.0000000000000002E-01	  0.0000000000000000E+00	  0.0000000000000000E+00
  9.0000000000000002E-01	  1.0000000000000001E-01	  0.0000000000000000E+00
  9.0000000000000002E-01	  2.0000000000000001E-01	  0.0000000000000000E+00
  9.0000000000000002E-01	  3.0000000000000004E-01	  0.0000000000000000E+00
  9.0000000000000002E-01	  4.0000000000000002E-01	  0.0000000000000000E+00
  9.0000000000000002E-01	  5.0000000000000000E-01	  0.0000000000000000E+00
  9.0000000000000002E-01	  6.0000000000000009E-01	  0.0000000000000000E+00
  9.0000000000000002E-01	  7.0000000000000007E-01	  0.0000000000000000E+00
  9.0000000000000002E-01	  8.0000000000000004E-01	  0.0000000000000000E+00
  9.0000000000000002E-01	  9.0000000000000002E-01	  0.0000000000000000E+00
  9.0000000000000002E-01	  1.0000000000000000E+00	  0.0000000000000000E+00
  1.0000000000000000E+00	  0.0000000000000000E+00	  0.0000000000000000E+00
  1.0000000000000000E+00	  1.0000000000000001E-01	  0.0000000000000000E+00
  1.0000000000000000E+00	  2.0000000000000001E-01	  0.0000000000000000E+00
  1.0000000000000000E+00	  3.0000000000000004E-01	  0.0000000000000000E+00
  1.0000000000000000E+00	  4.0000000000000002E-01	  0.0000000000000000E+00
  1.0000000000000000E+00	  5.0000000000000000E-01	  0.0000000000000000E+00
  1.0000000000000000E+00	  6.0000000000000009E-01	  0.0000000000000000E+00
  1.0000000000000000E+00	  7.0000000000000007E-01	  0.0000000000000000E+00
  1.0000000000000000E+00	  8.0000000000000004E-01	  0.0000000000000000E+00
  1.0000000000000000E+00	  9.0000000000000002E-01	  0.0000000000000000E+00
  1.0000000000000000E+00	  1.0000000000000000E+00	  0.0000000000000000E+00
CELLS 100 500
4	0	1	12	11	
4	1	2	13	12	
4	2	3	14	13	
4	3	4	15	14	
4	4	5	16	15	
4	5	6	17	16	
4	6	7	18	17	
4	7	8	19	18	
4	8	9	20	19	
4	9	10	21	20	
4	11	12	23	22	
4	12	13	24	23	
4	13	14	25	24	
4	14	15	26	25	
4	15	16	27	26	
4	16	17	28	27	
4	17	18	29	28	
4	18	19	30	29	
4	19	20	31	30	
4	20	21	32	31	
4	22	23	34	33	
4	23	24	35	34	
4	24	25	36	35	
4	25	26	37	36	
4	26	27	38	37	
4	27	28	39	38	
4	28	29	40	39	
4	29	30	41	40	
4	30	31	42	41	
4	31	32	43	42	
4	33	34	45	44	
4	34	35	46	45	
4	35	36	47	46	
4	36	37	48	47	
4	37	38	49	48	
4	38	39	50	49	
4	39	40	51	50	
4	40	41	52	51	
4	41	42	53	52	
4	42	43	54	53	
4	44	45	56	55	
4	45	46	57	56	
4	46	47	58	57	
4	47	48	59	58	
4	48	49	60	59	
4	49	50	61	60	
4	50	51	62	61	
4	51	52	63	62	
4	52	53	64	63	
4	53	54	65	64	
4	55	56	67	66	
4	56	57	68	67	
4	57	58	69	68	
4	58	59	70	69	
4	59	60	71	70	
4	60	61	72	71	
4	61	62	73	72	
4	62	63	74	73	
4	63	64	75	74	
4	64	65	76	75	
4	66	67	78	77	
4	67	68	79	78	
4	68	69	80	79	
4	69	70	81	80	
4	70	71	82	81	
4	71	72	83	82	
4	72	73	84	83	
4	73	74	85	84	
4	74	75	86	85	
4	75	76	87	86	
4	77	78	89	88	
4	78	79	90	89	
4	79	80	91	90	
4	80	81	92	91	
4	81	82	93	92	
4	82	83	94	93	
4	83	84	95	94	
4	84	85	96	95	
4	85	86	97	96	
4	86	87	98	97	
4	88	89	100	99	
4	89	90	101	100	
4	90	91	102	101	
4	91	92	103	102	
4	92	93	104	103	
4	93	94	105	104	
4	94	95	106	105	
4	95	96	107	106	
4	96	97	108	107	
4	97	98	109	108	
4	99	100	111	110	
4	100	101	112	111	
4	101	102	113	112	
4	102	103	114	113	
4	103	104	115	114	
4	104	105	116	115	
4	105	106	117	116	
4	106	107	118	117	
4	107	108	119	118	
4	108	109	120	119	
CELL_TYPES 100
9
9
9
9
9
9
9
9
9
9
9
9
9
9
9
9
9
9
9
9
9
9
9
9
9
9
9
9
9
9
9
9
9
9
9
9
9
9
9
9
9
9
9
9
9
9
9
9
9
9
9
9
9
9
9
9
9
9
9
9
9
9
9
9
9
9
9
9
9
9
9
9
9
9
9
9
9
9
9
9
9
9
9
9
9
9
9
9
9
9
9
9
9
9
9
9
9
9
9
9
CELL_DATA 100
SCALARS Temperature double
LOOKUP_TABLE default
  4.9999999925454894E+01
  7.7276954012374915E+01
  8.6384770774950923E+01
  8.9995076498017085E+01
  9.1368086707915097E+01
  9.1368086726276800E+01
  8.9995076547778240E+01
  8.6384770840968201E+01
  7.7276954072067198E+01
  4.9999999952436262E+01
  2.2723045582857935E+01
  4.9999999450545900E+01
  6.4651823487122712E+01
  7.2222525148795967E+01
  7.5477270460432649E+01
  7.5477270510283120E+01
  7.2222525283893233E+01
  6.4651823666353991E+01
  4.9999999612605372E+01
  2.2723045656109988E+01
  1.3615228627365997E+01
  3.5348174890218829E+01
  4.9999998801983416E+01
  5.8765930407691080E+01
  6.2841199735706631E+01
  6.2841199809316329E+01
  5.8765930607177012E+01
  4.9999999066638054E+01
  3.5348175129517408E+01
  1.3615228735530676E+01
  1.0004922786513340E+01
  2.7777472908765322E+01
  4.1234066724085139E+01
  4.9999998283265057E+01
  5.4280398606370177E+01
  5.4280398694486280E+01
  4.9999998522064075E+01
  4.1234067040895752E+01
  2.7777473195222928E+01
  1.0004922915994223E+01
  8.6319125380119139E+00
  2.4522727492323664E+01
  3.7158797241313536E+01
  4.5719597774905814E+01
  4.9999998093013211E+01
  4.9999998185883655E+01
  4.5719598026589324E+01
  3.7158797575217783E+01
  2.4522727794237191E+01
  8.6319126744789809E+00
  8.6319125563736296E+00
  2.4522727542174149E+01
  3.7158797314923248E+01
  4.5719597863021932E+01
  4.9999998185883655E+01
  4.9999998274231302E+01
  4.5719598102448430E+01
  3.7158797632566333E+01
  2.4522727829384465E+01
  8.6319126861947399E+00
  1.0004922836274503E+01
  2.7777473043862628E+01
  4.1234066923571127E+01
  4.9999998522064104E+01
  5.4280398858053701E+01
  5.4280398933912799E+01
  4.9999998727646009E+01
  4.1234067196313163E+01
  2.7777473290473775E+01
  1.0004922947744507E+01
  1.3615228693383282E+01
  3.5348175069450107E+01
  4.9999999066638068E+01
  5.8765930724501686E+01
  6.2841200069610849E+01
  6.2841200126959379E+01
  5.8765930879919061E+01
  4.9999999272827665E+01
  3.5348175255885089E+01
  1.3615228777653234E+01
  2.2723045642550233E+01
  4.9999999612605393E+01
  6.4651823726421327E+01
  7.2222525435253573E+01
  7.5477270762346137E+01
  7.5477270797493404E+01
  7.2222525530504385E+01
  6.4651823852788979E+01
  4.9999999726866008E+01
  2.2723045694196870E+01
  4.9999999952436227E+01
  7.7276954085626954E+01
  8.6384770883115578E+01
  8.9995076627497951E+01
  9.1368086844382148E+01
  9.1368086856097889E+01
  8.9995076659248227E+01
  8.6384770925238129E+01
  7.7276954123713821E+01
  4.9999999969651782E+01
POINT_DATA 121
SCALARS Temperature double
LOOKUP_TABLE default
  4.9999999925454894E+01
  6.3638476968914901E+01
  8.1830862393662926E+01
  8.8189923636484011E+01
  9.0681581602966091E+01
  9.1368086717095949E+01
  9.0681581637027520E+01
  8.8189923694373221E+01
  8.1830862456517707E+01
  6.3638477012251727E+01
  4.9999999952436262E+01
  3.6361522754156411E+01
  4.9999999742808413E+01
  6.9578386931248616E+01
  7.8313548977221672E+01
  8.2265739703790203E+01
  8.3422678601226920E+01
  8.2265739767057852E+01
  7.8313549084748402E+01
  6.9578387047998689E+01
  4.9999999823304698E+01
  3.6361522804273129E+01
  1.8169137105111965E+01
  3.0421612137747172E+01
  4.9999999157467713E+01
  6.1410069461398301E+01
  6.7326731438156571E+01
  6.9159235128934682E+01
  6.7326731552667425E+01
  6.1410069656015565E+01
  4.9999999368778710E+01
  3.0421612283440858E+01
  1.8169137195820333E+01
  1.1810075706939671E+01
  2.1686449803215869E+01
  3.8589928331263181E+01
  4.9999998554256180E+01
  5.6471881758258235E+01
  5.8560799211469856E+01
  5.6471881908260919E+01
  4.9999998809193727E+01
  3.8589928608068540E+01
  2.1686449994066308E+01
  1.1810075825762450E+01
  9.3184176622626271E+00
  1.7734258931403563E+01
  3.2673266091621919E+01
  4.3528115005892388E+01
  4.9999998189388563E+01
  5.2140198394938331E+01
  4.9999998357255834E+01
  4.3528115291191732E+01
  3.2673266401393413E+01
  1.7734259144983330E+01
  9.3184177952366021E+00
  8.6319125471927727E+00
  1.6577320032220836E+01
  3.0840762397683651E+01
  4.1439197548541124E+01
  4.7859797979206149E+01
  4.9999998184752954E+01
  4.7859798147288174E+01
  4.1439197834205459E+01
  3.0840762707851439E+01
  1.6577320246073842E+01
  8.6319126803368604E+00
  9.3184176963240652E+00
  1.7734258994671226E+01
  3.2673266206132787E+01
  4.3528115155895101E+01
  4.9999998357255848E+01
  5.2140198563020363E+01
  4.9999998509559639E+01
  4.3528115414743482E+01
  3.2673266487184435E+01
  1.7734259188449371E+01
  9.3184178169696246E+00
  1.1810075764828891E+01
  2.1686449910742631E+01
  3.8589928525880481E+01
  4.9999998809193741E+01
  5.6471882043557578E+01
  5.8560799497134184E+01
  5.6471882167109321E+01
  4.9999999019176478E+01
  3.8589928753874922E+01
  2.1686450067939152E+01
  1.1810075862698870E+01
  1.8169137167966753E+01
  3.0421612254497244E+01
  4.9999999368778710E+01
  6.1410069738203653E+01
  6.7326731747928051E+01
  6.9159235439102446E+01
  6.7326731833719052E+01
  6.1410069884010014E+01
  4.9999999527091930E+01
  3.0421612363650294E+01
  1.8169137235925049E+01
  3.6361522797493222E+01
  4.9999999823304684E+01
  6.9578387076942306E+01
  7.8313549168072115E+01
  8.2265739917369956E+01
  8.3422678815079877E+01
  8.2265739960835973E+01
  7.8313549241944926E+01
  6.9578387157151724E+01
  4.9999999878607113E+01
  3.6361522831924319E+01
  4.9999999952436227E+01
  6.3638477019031576E+01
  8.1830862484371266E+01
  8.8189923755306765E+01
  9.0681581735940057E+01
  9.1368086850240019E+01
  9.0681581757673058E+01
  8.8189923792243178E+01
  8.1830862524475975E+01
  6.3638477046682802E+01
  4.9999999969651782E+01
