# vtk DataFile Version 3.0
VTK datafile generated by Trushant
ASCII
DATASET UNSTRUCTURED_GRID
POINTS 13471 double
  0.0000000000000000E+00	  0.0000000000000000E+00	  0.0000000000000000E+00
  0.0000000000000000E+00	  1.0000000000000000E+00	  0.0000000000000000E+00
  1.0000000000000000E+00	  1.0000000000000000E+00	  0.0000000000000000E+00
  1.0000000000000000E+00	  0.0000000000000000E+00	  0.0000000000000000E+00
  0.0000000000000000E+00	  9.9999999999811039E-03	  0.0000000000000000E+00
  0.0000000000000000E+00	  1.9999999999962371E-02	  0.0000000000000000E+00
  0.0000000000000000E+00	  2.9999999999943069E-02	  0.0000000000000000E+00
  0.0000000000000000E+00	  3.9999999999921862E-02	  0.0000000000000000E+00
  0.0000000000000000E+00	  4.9999999999899659E-02	  0.0000000000000000E+00
  0.0000000000000000E+00	  5.9999999999878373E-02	  0.0000000000000000E+00
  0.0000000000000000E+00	  6.9999999999860507E-02	  0.0000000000000000E+00
  0.0000000000000000E+00	  7.9999999999845181E-02	  0.0000000000000000E+00
  0.0000000000000000E+00	  8.9999999999829897E-02	  0.0000000000000000E+00
  0.0000000000000000E+00	  9.9999999999814626E-02	  0.0000000000000000E+00
  0.0000000000000000E+00	  1.0999999999979940E-01	  0.0000000000000000E+00
  0.0000000000000000E+00	  1.1999999999978320E-01	  0.0000000000000000E+00
  0.0000000000000000E+00	  1.2999999999976089E-01	  0.0000000000000000E+00
  0.0000000000000000E+00	  1.3999999999973281E-01	  0.0000000000000000E+00
  0.0000000000000000E+00	  1.4999999999970359E-01	  0.0000000000000000E+00
  0.0000000000000000E+00	  1.5999999999967451E-01	  0.0000000000000000E+00
  0.0000000000000000E+00	  1.6999999999964530E-01	  0.0000000000000000E+00
  0.0000000000000000E+00	  1.7999999999961619E-01	  0.0000000000000000E+00
  0.0000000000000000E+00	  1.8999999999958700E-01	  0.0000000000000000E+00
  0.0000000000000000E+00	  1.9999999999955789E-01	  0.0000000000000000E+00
  0.0000000000000000E+00	  2.0999999999952881E-01	  0.0000000000000000E+00
  0.0000000000000000E+00	  2.1999999999949960E-01	  0.0000000000000000E+00
  0.0000000000000000E+00	  2.2999999999947041E-01	  0.0000000000000000E+00
  0.0000000000000000E+00	  2.3999999999944130E-01	  0.0000000000000000E+00
  0.0000000000000000E+00	  2.4999999999941211E-01	  0.0000000000000000E+00
  0.0000000000000000E+00	  2.5999999999938300E-01	  0.0000000000000000E+00
  0.0000000000000000E+00	  2.6999999999935381E-01	  0.0000000000000000E+00
  0.0000000000000000E+00	  2.7999999999932468E-01	  0.0000000000000000E+00
  0.0000000000000000E+00	  2.8999999999929549E-01	  0.0000000000000000E+00
  0.0000000000000000E+00	  2.9999999999926641E-01	  0.0000000000000000E+00
  0.0000000000000000E+00	  3.0999999999923722E-01	  0.0000000000000000E+00
  0.0000000000000000E+00	  3.1999999999920808E-01	  0.0000000000000000E+00
  0.0000000000000000E+00	  3.2999999999917901E-01	  0.0000000000000000E+00
  0.0000000000000000E+00	  3.3999999999914982E-01	  0.0000000000000000E+00
  0.0000000000000000E+00	  3.4999999999912068E-01	  0.0000000000000000E+00
  0.0000000000000000E+00	  3.5999999999909149E-01	  0.0000000000000000E+00
  0.0000000000000000E+00	  3.6999999999906241E-01	  0.0000000000000000E+00
  0.0000000000000000E+00	  3.7999999999903322E-01	  0.0000000000000000E+00
  0.0000000000000000E+00	  3.8999999999900409E-01	  0.0000000000000000E+00
  0.0000000000000000E+00	  3.9999999999897490E-01	  0.0000000000000000E+00
  0.0000000000000000E+00	  4.0999999999894582E-01	  0.0000000000000000E+00
  0.0000000000000000E+00	  4.1999999999891668E-01	  0.0000000000000000E+00
  0.0000000000000000E+00	  4.2999999999888749E-01	  0.0000000000000000E+00
  0.0000000000000000E+00	  4.3999999999885842E-01	  0.0000000000000000E+00
  0.0000000000000000E+00	  4.4999999999882923E-01	  0.0000000000000000E+00
  0.0000000000000000E+00	  4.5999999999879998E-01	  0.0000000000000000E+00
  0.0000000000000000E+00	  4.6999999999877079E-01	  0.0000000000000000E+00
  0.0000000000000000E+00	  4.7999999999874182E-01	  0.0000000000000000E+00
  0.0000000000000000E+00	  4.8999999999871258E-01	  0.0000000000000000E+00
  0.0000000000000000E+00	  4.9999999999869432E-01	  0.0000000000000000E+00
  0.0000000000000000E+00	  5.0999999999870982E-01	  0.0000000000000000E+00
  0.0000000000000000E+00	  5.1999999999873614E-01	  0.0000000000000000E+00
  0.0000000000000000E+00	  5.2999999999876257E-01	  0.0000000000000000E+00
  0.0000000000000000E+00	  5.3999999999878878E-01	  0.0000000000000000E+00
  0.0000000000000000E+00	  5.4999999999881521E-01	  0.0000000000000000E+00
  0.0000000000000000E+00	  5.5999999999884154E-01	  0.0000000000000000E+00
  0.0000000000000000E+00	  5.6999999999886786E-01	  0.0000000000000000E+00
  0.0000000000000000E+00	  5.7999999999889418E-01	  0.0000000000000000E+00
  0.0000000000000000E+00	  5.8999999999892050E-01	  0.0000000000000000E+00
  0.0000000000000000E+00	  5.9999999999894682E-01	  0.0000000000000000E+00
  0.0000000000000000E+00	  6.0999999999897314E-01	  0.0000000000000000E+00
  0.0000000000000000E+00	  6.1999999999899946E-01	  0.0000000000000000E+00
  0.0000000000000000E+00	  6.2999999999902578E-01	  0.0000000000000000E+00
  0.0000000000000000E+00	  6.3999999999905210E-01	  0.0000000000000000E+00
  0.0000000000000000E+00	  6.4999999999907843E-01	  0.0000000000000000E+00
  0.0000000000000000E+00	  6.5999999999910486E-01	  0.0000000000000000E+00
  0.0000000000000000E+00	  6.6999999999913118E-01	  0.0000000000000000E+00
  0.0000000000000000E+00	  6.7999999999915739E-01	  0.0000000000000000E+00
  0.0000000000000000E+00	  6.8999999999918371E-01	  0.0000000000000000E+00
  0.0000000000000000E+00	  6.9999999999921014E-01	  0.0000000000000000E+00
  0.0000000000000000E+00	  7.0999999999923646E-01	  0.0000000000000000E+00
  0.0000000000000000E+00	  7.1999999999926279E-01	  0.0000000000000000E+00
  0.0000000000000000E+00	  7.2999999999928922E-01	  0.0000000000000000E+00
  0.0000000000000000E+00	  7.3999999999931543E-01	  0.0000000000000000E+00
  0.0000000000000000E+00	  7.4999999999934175E-01	  0.0000000000000000E+00
  0.0000000000000000E+00	  7.5999999999936807E-01	  0.0000000000000000E+00
  0.0000000000000000E+00	  7.6999999999939450E-01	  0.0000000000000000E+00
  0.0000000000000000E+00	  7.7999999999942071E-01	  0.0000000000000000E+00
  0.0000000000000000E+00	  7.8999999999944703E-01	  0.0000000000000000E+00
  0.0000000000000000E+00	  7.9999999999947335E-01	  0.0000000000000000E+00
  0.0000000000000000E+00	  8.0999999999949979E-01	  0.0000000000000000E+00
  0.0000000000000000E+00	  8.1999999999952611E-01	  0.0000000000000000E+00
  0.0000000000000000E+00	  8.2999999999955232E-01	  0.0000000000000000E+00
  0.0000000000000000E+00	  8.3999999999957875E-01	  0.0000000000000000E+00
  0.0000000000000000E+00	  8.4999999999960507E-01	  0.0000000000000000E+00
  0.0000000000000000E+00	  8.5999999999963139E-01	  0.0000000000000000E+00
  0.0000000000000000E+00	  8.6999999999965771E-01	  0.0000000000000000E+00
  0.0000000000000000E+00	  8.7999999999968415E-01	  0.0000000000000000E+00
  0.0000000000000000E+00	  8.8999999999971036E-01	  0.0000000000000000E+00
  0.0000000000000000E+00	  8.9999999999973668E-01	  0.0000000000000000E+00
  0.0000000000000000E+00	  9.0999999999976311E-01	  0.0000000000000000E+00
  0.0000000000000000E+00	  9.1999999999978943E-01	  0.0000000000000000E+00
  0.0000000000000000E+00	  9.2999999999981564E-01	  0.0000000000000000E+00
  0.0000000000000000E+00	  9.3999999999984196E-01	  0.0000000000000000E+00
  0.0000000000000000E+00	  9.4999999999986839E-01	  0.0000000000000000E+00
  0.0000000000000000E+00	  9.5999999999989472E-01	  0.0000000000000000E+00
  0.0000000000000000E+00	  9.6999999999992104E-01	  0.0000000000000000E+00
  0.0000000000000000E+00	  9.7999999999994747E-01	  0.0000000000000000E+00
  0.0000000000000000E+00	  9.8999999999997368E-01	  0.0000000000000000E+00
  9.9999999999811039E-03	  1.0000000000000000E+00	  0.0000000000000000E+00
  1.9999999999962371E-02	  1.0000000000000000E+00	  0.0000000000000000E+00
  2.9999999999943069E-02	  1.0000000000000000E+00	  0.0000000000000000E+00
  3.9999999999921862E-02	  1.0000000000000000E+00	  0.0000000000000000E+00
  4.9999999999899659E-02	  1.0000000000000000E+00	  0.0000000000000000E+00
  5.9999999999878373E-02	  1.0000000000000000E+00	  0.0000000000000000E+00
  6.9999999999860507E-02	  1.0000000000000000E+00	  0.0000000000000000E+00
  7.9999999999845181E-02	  1.0000000000000000E+00	  0.0000000000000000E+00
  8.9999999999829897E-02	  1.0000000000000000E+00	  0.0000000000000000E+00
  9.9999999999814626E-02	  1.0000000000000000E+00	  0.0000000000000000E+00
  1.0999999999979940E-01	  1.0000000000000000E+00	  0.0000000000000000E+00
  1.1999999999978320E-01	  1.0000000000000000E+00	  0.0000000000000000E+00
  1.2999999999976089E-01	  1.0000000000000000E+00	  0.0000000000000000E+00
  1.3999999999973281E-01	  1.0000000000000000E+00	  0.0000000000000000E+00
  1.4999999999970359E-01	  1.0000000000000000E+00	  0.0000000000000000E+00
  1.5999999999967451E-01	  1.0000000000000000E+00	  0.0000000000000000E+00
  1.6999999999964530E-01	  1.0000000000000000E+00	  0.0000000000000000E+00
  1.7999999999961619E-01	  1.0000000000000000E+00	  0.0000000000000000E+00
  1.8999999999958700E-01	  1.0000000000000000E+00	  0.0000000000000000E+00
  1.9999999999955789E-01	  1.0000000000000000E+00	  0.0000000000000000E+00
  2.0999999999952881E-01	  1.0000000000000000E+00	  0.0000000000000000E+00
  2.1999999999949960E-01	  1.0000000000000000E+00	  0.0000000000000000E+00
  2.2999999999947041E-01	  1.0000000000000000E+00	  0.0000000000000000E+00
  2.3999999999944130E-01	  1.0000000000000000E+00	  0.0000000000000000E+00
  2.4999999999941211E-01	  1.0000000000000000E+00	  0.0000000000000000E+00
  2.5999999999938300E-01	  1.0000000000000000E+00	  0.0000000000000000E+00
  2.6999999999935381E-01	  1.0000000000000000E+00	  0.0000000000000000E+00
  2.7999999999932468E-01	  1.0000000000000000E+00	  0.0000000000000000E+00
[...]
CELL_DATA 26540
SCALARS Temperature double
LOOKUP_TABLE default
  2.3731587690841071E-05
  5.7584503928738069E-05
  4.2482804091247665E-05
  4.2488469670804172E-05
  4.2479858471950730E-05
  1.1846720662117353E-05
  1.1820257496704335E-05
  1.1846720662117931E-05
  1.1820795910755792E-05
  1.5240696235756636E-04
  1.8963526002423992E-05
  2.0561432803029959E-05
  2.0563872266809071E-05
  1.8968600209127454E-05
  1.8968609496173691E-05
  2.0563891902262934E-05
  5.2970173656437703E-05
  2.4027402030389701E-05
  2.4130198053284348E-05
  1.9563486754614533E-05
  1.9568663406787742E-05
  2.1909709537137794E-05
  9.7562744357714977E-06
  9.1125281880716359E-06
  3.6978614451862543E-05
  3.9791449567495948E-05
  2.3074373267169492E-05
  3.7524973204574595E-05
  5.4102711305296624E-05
  3.9868180833793562E-05
  3.7129893372773473E-05
  5.6602111352267940E-05
  6.0755552537613553E-05
  5.4397243319338766E-05
  5.4073617649099552E-05
  6.4438851003221514E-05
  2.0834698001454793E-05
  2.0541450092214698E-05
  2.0541451545388213E-05
  5.6020466266487587E-05
  5.6023686246987271E-05
  1.2277608275419735E-05
  1.2144269005665861E-05
  1.2144269601832925E-05
  7.7562450333910394E-05
  3.7515139056021163E-05
  2.4006786653192392E-05
  1.4735735262838929E-05
  1.4726692181495083E-05
  1.4732949760477901E-05
  1.4733213610172983E-05
  2.5331666572450172E-05
  2.5212379917510780E-05
  2.2449725619760599E-05
  2.5212379788697312E-05
  3.1944521022646750E-05
  3.1945752962381613E-05
  2.5636450133398844E-05
  3.2056973808687435E-05
  8.4733709400360317E-05
  7.2446673569731001E-05
  7.5816933218744029E-05
  4.7113516852787973E-05
  3.1933920479177981E-05
  4.2930254428156282E-05
  3.4265933140730096E-05
  4.6540432218446477E-05
  4.0689502688150623E-05
  3.5746806261521671E-05
  3.5521706303749531E-05
  2.5727187693486454E-05
  1.6639485464212413E-05
  1.9643166196397690E-05
  2.3043905053425819E-05
  2.2188811708706856E-05
  4.7512170814696265E-05
  3.8525163517040614E-05
  4.7158836967459536E-05
  4.2094162639504783E-05
  4.2094162484903998E-05
  6.7063337656699670E-05
  1.1391808977161897E-05
  3.6480771470542786E-05
  4.7972805526173726E-05
  4.7428780314226856E-05
  4.6639799316103207E-05
  5.2566751097120844E-05
  5.0150499520439544E-05
  5.0479603379228020E-05
  5.1331500893886129E-05
  6.9891590707656196E-05
  2.3916327864896744E-05
  2.4053153457344747E-05
  2.4052317288977765E-05
  4.0479608954532853E-05
  1.9110519516973530E-05
  1.9029826576537729E-05
  1.9113866221797055E-05
  1.9030998014687364E-05
  1.9110705055263513E-05
  1.9029746613432984E-05
  1.9110518719434060E-05
  1.9029824738459957E-05
  6.8894039017601969E-05
  7.9038984930434965E-05
  4.5813142786855903E-05
  4.7248552516013416E-05
  4.5813142786857035E-05
  4.7248552516017969E-05
  4.5800916285441790E-05
  4.7233117858356829E-05
  4.5813142792911504E-05
  4.7248552519762390E-05
  1.7864602978288248E-05
  5.2288268494757553E-05
  3.5972686495177538E-05
  3.5973897052449442E-05
  2.7822608316284002E-05
  3.6106465814418880E-05
  2.8262173686905334E-05
  1.9231764179801008E-05
  1.9231764179789441E-05
  1.9244824165983467E-05
  1.9231764247822995E-05
  2.5210926179099276E-05
  1.0393853420040041E-05
  7.5640795061163977E-06
  7.6041970716293125E-06
  7.6041878057339571E-06
  4.1013116739749061E-05
  3.1755099679933683E-05
  2.3586633686504184E-05
  4.0724959584130931E-05
  1.4724637430724555E-05
  1.3166147367830472E-05
  1.3471100409691290E-05
  1.6759576801782901E-05
  1.3528119598894732E-05
  3.0878897965592940E-05
  5.3677082983274896E-05
  4.1203901972670135E-05
  2.2231666856568556E-05
  2.2231531336340571E-05
  2.2231666856566950E-05
  1.5876951465128688E-05
  5.2436658312782566E-05
  3.7817091248986571E-05
  2.6346094920616961E-05
  2.5107488726390133E-05
  4.1940755170903094E-05
  7.9551081396472595E-05
  2.7310981500547257E-05
  1.6555242945490195E-05
  1.6555242945484981E-05
  1.6555242945486428E-05
  4.6431990533934657E-05
  4.4513634628300349E-05
  4.4503354099465126E-05
  1.0966396101890417E-04
  8.9808895276130891E-05
  2.8054686484349386E-05
  4.7381831767630729E-05
  4.7388022187163667E-05
  4.2755083405418314E-05
  4.7392321357710017E-05
  3.1020086147390583E-05
  3.1118956241887840E-05
  3.1020086147376902E-05
  3.1020086147377227E-05
  1.0624164506845527E-05
  1.0624164506844614E-05
  2.1956863124999182E-05
  1.0624460691500436E-05
  6.0463385514973874E-05
  5.2092488562919757E-05
  2.2842905943445983E-05
  8.6328332326887625E-05
  8.4174911540675716E-05
  3.2416086718491880E-05
  3.2416086718499646E-05
  3.4412109948875940E-05
  3.2416086718483119E-05
  4.2661344855345252E-05
  2.7368330839810418E-05
  2.7204874764863297E-05
  2.4876560666192540E-05
  2.7204874238871331E-05
  3.8572666469201051E-05
  3.6583019402923690E-05
  4.5740681663927791E-05
  5.8640778986267711E-05
  5.5390359810424223E-05
  5.5368092002358371E-05
  2.9818519104890605E-05
  2.9818519104886112E-05
  2.9816818295862406E-05
  2.9818519105348027E-05
  3.6078845647427642E-05
  4.6445328646456756E-05
  2.2631248874499260E-05
  2.2375877947381063E-05
  1.4622548443788073E-05
  2.2634133347159971E-05
  7.8482965876422542E-05
  4.6211016753719650E-05
  2.7302393659050470E-05
  2.8334932586614775E-05
  2.7368957044146921E-05
  2.8372930370192588E-05
  1.9134411074017077E-05
  1.9669347897879481E-05
  1.9135012535255192E-05
  4.4812687949687231E-05
  2.4402791870370458E-05
  2.4482275962947562E-05
  2.4482235819374523E-05
  3.0129283950296458E-05
  3.0591830145711340E-05
  3.0225417583503166E-05
  2.7857665408618062E-05
  4.7104471769541803E-05
  4.7107627197177747E-05
  2.0567573003824603E-05
  7.6466046220932276E-06
  7.6425448968085272E-06
  7.6425448967657876E-06
  7.6425448967640511E-06
  1.8339266445211921E-05
  5.8800925360714913E-05
  2.0478655902538076E-05
  2.0478707667831415E-05
  1.4104347576811754E-05
  2.0480196037345323E-05
  2.0737702945292247E-05
  8.2358178763550254E-06
  8.2358178763531365E-06
  8.2359160447344228E-06
  4.6713353348169393E-05
  3.7698333860637145E-05
  6.1609391145305501E-06
  6.1709267873485299E-06
  6.1609391145048435E-06
  6.1609391145027352E-06
  3.0608845040601840E-05
  1.1796625123704998E-05
  1.0462539167044693E-05
  1.0591307770587889E-05
  1.0591331917360302E-05
  2.6726962817112199E-05
  2.6745804808658616E-05
  2.9770594820337568E-05
  2.8871890791208394E-05
  3.0785745435308394E-05
  3.1830372705534456E-05
  2.6553812217159484E-05
  6.4384952032113760E-05
  5.7847814061345423E-05
  5.6546528518117831E-05
  5.5563565034027165E-05
  8.8115000349672310E-05
  8.9991169466032718E-05
  1.0334534851420780E-05
  1.0751541436702782E-05
  1.0334534978233723E-05
  1.0334534850773686E-05
  2.5933810893448811E-05
  5.7497682026055520E-05
  5.3864246280533867E-05
  5.6271449002079444E-05
  5.4846895149868864E-05
  5.4008006093152711E-05
  3.7298237071043380E-05
  8.9636990477999932E-05
  4.8462465846170508E-05
  4.7807476621036128E-05
  4.7721779687239433E-05
  4.7722081309790554E-05
  1.8408120548135754E-05
  7.8265253371250816E-05
  1.3105283882366476E-05
  5.3118451239309483E-05
  1.7150369749815909E-05
  1.7071864474314760E-05
  1.7099083047429112E-05
  1.7071799500528776E-05
  1.5950456913612714E-05
  1.5886800335528672E-05
  1.5962711367557763E-05
  1.5887825038021732E-05
  9.3707638259014233E-05
  5.1351436256679717E-05
  2.7156216891187782E-05
  5.0526004974341215E-05
  4.7569619211344788E-05
  4.7981472947623278E-05
  4.1243680804492166E-05
  4.2360252026172041E-05
  4.1243021581292991E-05
  4.2359914632108338E-05
  4.1237723623059556E-05
  4.2357152277434878E-05
  3.2621227497582823E-05
  5.0375174374826893E-05
  2.3784987580234880E-05
  5.2073367340053274E-05
  2.2435994463772884E-05
  2.2440567403758285E-05
  2.2429052160929765E-05
  2.2433692895739036E-05
  2.3521365579820459E-05
  7.9454711495133414E-05
  7.6685553333538835E-05
  3.5842306273551334E-05
  1.7895303551949372E-05
  1.9893040595203767E-05
  2.3403851459109239E-05
  3.0628163673867481E-05
  2.3407299386240721E-05
  3.0633009997420815E-05
  3.8542068977818531E-05
  1.9877255193449800E-05
  1.9529152323931821E-05
  1.9877255193446259E-05
  7.8266495692046714E-06
  7.8269227885394825E-06
  7.8240981696949564E-06
  7.8241036481781173E-06
  6.1523877816597330E-06
  6.1523877822066063E-06
  6.1523356591125667E-06
  6.1523877821960243E-06
  4.0699252470547328E-05
  2.7582775434610242E-05
  2.7390959403968488E-05
  4.6276242145532394E-05
  6.5536513559815812E-05
  5.3395491538791467E-05
  1.7751132530593206E-05
  1.7689748348303406E-05
  1.7746050326055188E-05
  1.7691940186787209E-05
  2.9118779609517982E-05
  2.3691172736473594E-05
  2.3700163685579864E-05
  2.4318691530144996E-05
  2.4580906130760572E-05
  1.7687190286440419E-05
  1.7687190286440073E-05
  1.7516149685512760E-05
  4.3608964046911541E-05
  6.4739590932385996E-05
  5.4841967266296050E-05
  5.4841992726813940E-05
  6.4739617460728697E-05
  5.4150317280783205E-05
  6.4616591573797252E-05
  5.7053808111228763E-05
  7.2821082797230385E-06
  2.7677719593941867E-05
  3.4341485324810324E-05
  7.3756785951997328E-06
  7.3756785952008585E-06
  7.3741940591371365E-06
  3.6477372760733742E-05
  1.3897498286570199E-05
  1.4466225600888441E-05
  1.3897498636428239E-05
  1.3897498284981628E-05
  3.2102114105121177E-05
  4.4833489201642556E-05
  2.5047744668551495E-05
  2.8975138443413779E-05
  3.1635058557652316E-05
  2.1515199425334617E-05
  4.8674460275137701E-05
  3.8774448940750052E-05
  2.9814340880597695E-05
  4.7228793202156249E-05
  9.1956710966861611E-06
  9.1962361097916045E-06
  9.1956710966860680E-06
  9.1964518158119194E-06
  7.2345644446366007E-06
  1.9125643236120442E-05
  1.7611897832227457E-05
  3.6194971549599885E-05
  3.4934718793447799E-05
  1.1755263730521914E-04
  2.8169809902624435E-05
  5.6326184721102390E-05
  5.2298948862742345E-05
  3.6325085315784990E-05
  6.1305541955688494E-05
  5.9351720737497836E-05
  3.7762717580724098E-05
  2.1426013170023656E-05
  6.8551821199027847E-05
  2.0336087670243813E-05
  4.8017856981188085E-05
  2.5862443661992592E-05
  2.7583151168601237E-05
  2.7584048204739790E-05
  2.7585994389924207E-05
  5.4301104370465850E-05
  6.0779576988609664E-05
  6.4289173512346086E-05
  7.3718913686987765E-05
  5.7648058486182844E-05
  5.9762415078533788E-05
  4.6729633513009385E-05
  5.2052349531460188E-05
  5.2126590055731274E-05
  4.6767749249109832E-05
  4.9598492363491221E-05
  4.9598503086193372E-05
  4.9598448150879479E-05
  3.0721883426437194E-05
  2.6850315908639778E-05
  2.6850190144300636E-05
  2.6606679829416996E-05
  2.6746948167487448E-05
  1.5787699003330803E-05
  1.5772288975490500E-05
  1.5786050146822785E-05
  1.5786503521519782E-05
  7.2012615294130954E-05
  7.8213536941625200E-05
  2.7867169697578359E-05
  2.7977819721118918E-05
  2.7875388226080976E-05
  2.7844458169972247E-05
  3.9046391938377280E-05
  3.4456819064447827E-05
  2.7377728389443500E-05
  1.8133018335375211E-05
  1.2884698070229983E-05
  1.2904141079564239E-05
  2.0120218221604826E-05
  1.2907124227453858E-05
  2.7472020676028042E-05
  2.7484523519089749E-05
  2.0187805203653640E-05
  4.8686372433754336E-05
  8.6817038700664952E-05
  3.5762753297449755E-05
  4.5307403318123079E-05
  8.7394383562920544E-05
  9.0117836106129066E-05
  6.7638785647306006E-05
  5.6588820854963606E-05
  5.5950157440647140E-05
  6.9736954498183818E-05
  2.4400254615749603E-05
  1.7788818557453254E-05
  2.2613774169878481E-05
  1.7864524111201149E-05
  2.6415451352758771E-05
  2.3679184101957235E-05
  2.9841397481058387E-05
  2.6425088584374467E-05
  2.2621865690365956E-05
  4.5183101267398422E-05
  4.2116756479298075E-05
  3.9538493784633407E-05
  2.8046547566608675E-05
  2.8050923961353503E-05
  2.7811796728339433E-05
  2.8680942589125770E-05
  4.8539063108903849E-05
  5.0549996955483418E-05
  1.4454120568326438E-05
  1.4352305650606083E-05
  1.4352274119462105E-05
  1.4362633827586557E-05
  5.2417381716467134E-05
  4.1313928300506989E-05
  3.8469435548926759E-05
  4.3440873819426448E-05
  2.3363395917963087E-05
  2.3310083317428795E-05
  2.3310083317426897E-05
  4.0565106405185873E-05
  3.0613588875488709E-05
  2.7455645006115305E-05
  2.7456199726544063E-05
  2.6050426802152674E-05
  8.9932304158032232E-06
  9.1543223999179679E-06
  9.1706685576944098E-06
  9.1550487226888029E-06
  2.5281769615960585E-05
  5.2397108847479464E-05
  1.5701651935446899E-05
  1.5696259542967281E-05
  1.5699529638073023E-05
  1.5692902372526183E-05
  8.2118858378928581E-05
  6.3231427663298822E-05
  1.4396114192091408E-05
  1.5962167212712844E-05
  4.7193604764695747E-05
  3.9581803029102195E-06
  9.8877641567560656E-05
  3.4444850075776499E-05
  3.2627683025485459E-05
  3.3706280854479144E-05
  3.3708028386503085E-05
  6.3608946485395665E-05
  1.2703703749841253E-04
  2.6443297916422066E-05
  2.5767367446603380E-05
  2.5611353208615441E-05
  2.5600514804735674E-05
  2.5753044635171755E-05
  2.5753044635161634E-05
  2.5780534149233112E-05
  2.5753044778322071E-05
  7.0167157601264959E-05
  3.1187035294571754E-05
  3.1187033622376027E-05
  3.5884685474233619E-05
  3.5884685925403117E-05
  3.1186977869488463E-05
  3.5884639368532392E-05
  7.5891244900451449E-05
  8.6881265303767545E-05
  9.3075618473487212E-05
  9.2021483732085630E-05
  9.1993012059099242E-05
  4.3228169955402697E-05
  4.8874198778985961E-05
  5.8887749513531433E-05
  4.0639967758545564E-05
  2.5874869257276863E-05
  1.8016111448931008E-05
  2.5608701552833336E-05
  2.3037920537776647E-05
  2.3038149074758768E-05
  5.9591346116213414E-05
  2.3881195649266032E-05
  4.3530894314694638E-05
  4.3281383524605575E-05
  4.3279097390955743E-05
  5.0300683418623189E-05
  5.0300683418618392E-05
  7.7116838957809594E-05
  7.7116838957807046E-05
  7.7062598791570041E-05
  5.0275326031044985E-05
  5.0300683418919705E-05
  7.7116838958585842E-05
  3.4664631180678082E-05
  3.9109663803414587E-05
  2.1024082391181386E-05
  3.6671298658639000E-05
  3.9823362801716127E-05
  1.7799865405667466E-05
  2.4058941172186074E-05
  5.4801710756766193E-05
  1.2494052501351907E-05
  1.2491158678869018E-05
  1.2421074668644198E-05
  1.7383533110354956E-05
  3.4535679627233642E-05
  5.1843927868249314E-05
  4.1319028980283006E-05
  4.7322251696251554E-05
  1.0018364617998817E-04
  2.9477525805767412E-05
  1.0759184660746287E-04
  6.1106697603243977E-05
  1.9399986431040588E-05
  1.9429426711681614E-05
  1.9429386356484684E-05
  2.1534039021371062E-05
  2.5462870536539012E-05
  3.5257657792883176E-05
  9.7365402933151851E-05
  1.0426254364849991E-04
  2.4741224730112502E-05
  2.0016673111630822E-05
  1.9310384751178118E-05
  1.4536971870993941E-05
  1.4846081142790705E-05
  3.5717792166135264E-05
  9.1636433314318178E-06
  9.1636433314313960E-06
  1.4735391385632718E-05
  9.1626135007300115E-06
  1.2916540293379746E-05
  1.3371273558737054E-05
  1.2916303391966279E-05
  1.3368965185909408E-05
  2.7091945495824028E-05
  2.7101653888932113E-05
  2.6809760688262377E-05
  2.7067058363433542E-05
  1.4413979165464881E-05
  1.3950474754969041E-05
  2.1949241459645460E-05
  1.4085384303034216E-05
  1.7161607119405070E-05
  5.4808195506303754E-05
  3.2378557123339948E-05
  3.2446416645415699E-05
  3.2446351173809983E-05
  4.2874203153687256E-05
  6.6408249661257625E-06
  6.6315294453391748E-06
  7.0293886725763826E-06
  6.7194557457116911E-06
  6.6448273692369252E-06
  6.5795838944886718E-06
  7.0293886725617154E-06
  7.0307182461400880E-06
  5.6774763108441484E-05
  4.6118813637556846E-05
  4.3140338576730356E-05
  1.4729265020571260E-05
  1.4728575164487063E-05
  1.9080210920062842E-05
  1.9079816236584370E-05
  1.4729265020571875E-05
  1.9080210920061568E-05
  1.4902493365484282E-05
  1.9224723218271878E-05
  9.7176552296270511E-06
  9.7171381195434195E-06
  1.1383479983957405E-05
  1.2222532727643094E-05
  1.1383371532684539E-05
  1.2218503954960171E-05
  4.3475767193237290E-05
  4.3466340006306964E-05
  3.7325069750445077E-05
  4.3266750017291717E-05
  1.4821181914703891E-05
  1.4620256364938864E-05
  3.9325317553228213E-05
  5.1110954170355029E-05
  9.6054016034657569E-05
  2.9374364624576203E-05
  2.9372582969436494E-05
  2.9374238736864167E-05
  2.6323120027140210E-05
  3.1749914422668632E-05
  1.1974648929826450E-04
  9.5507437996570171E-05
  1.1773859878818028E-04
  6.1814363593413015E-05
  5.6977913540585606E-05
  8.0785505147063427E-05
  2.1994287498702135E-05
  2.1183213955067229E-05
  3.7811956883797704E-05
  1.1575680118610124E-05
  1.1578676128035434E-05
  1.1578226013593269E-05
  1.1575680108252993E-05
  1.2710273277746488E-05
  8.7970050869959835E-06
  7.8323212115352371E-06
  4.9814841790300146E-05
  1.1622287127770051E-04
  1.8873468389690651E-05
  2.5687824567514850E-05
  2.5687824567490744E-05
  2.5687824567491533E-05
  5.0891538467765369E-05
  7.4911844820744775E-05
  2.1603478738381047E-05
  8.1164532336931417E-06
  8.0973442679754102E-06
  7.9548809637101460E-06
  7.4842598362367441E-06
  8.1182910964748117E-06
  7.9571384189315836E-06
  7.9548809636955889E-06
  7.9548789522802423E-06
  2.3058845779035121E-05
  2.6324366537220193E-05
  6.7100413255053731E-05
  3.1602130064808912E-05
  2.0712004670239911E-05
  1.3293530632116766E-05
  1.9935205598343222E-05
  1.9388608896039351E-05
  1.9600702043411739E-05
  1.9922221610210061E-05
  5.5225547752391303E-05
  5.4860463200932248E-05
  5.4688864440245360E-05
  1.0969236134654168E-05
  1.0967612499717342E-05
  1.0968089173234642E-05
  1.0967612210354626E-05
  3.2388130768270794E-05
  3.2391724034997337E-05
  3.2387708750320206E-05
  3.2783110853157390E-05
  3.2783114594437869E-05
  2.4356772322325327E-05
  1.0136166792909511E-04
  4.0202540336742207E-05
  4.2862891200056715E-05
  4.2862938566149866E-05
  4.2862925025643286E-05
  8.1505950787825966E-05
  3.4400176429503910E-05
  3.4368350630211809E-05
  3.3299668974491268E-05
  3.4368311864223878E-05
  2.5403016352216961E-05
  2.5400691012564634E-05
  2.0700240698301925E-05
  2.5351556893020242E-05
  1.0205359832895471E-05
  9.9387377425902288E-06
  9.9223444107336032E-06
  2.6065946409232330E-05
  2.3443261764180670E-05
  4.2647039594814068E-05
  2.2646976461847679E-05
  6.0656852221797042E-05
  2.2523492905863922E-05
  7.7263910908906147E-05
  4.5241853474220756E-05
  1.9356440540913450E-05
  3.0397628607738857E-05
  2.6484160743482980E-05
  1.1567953174505260E-05
  6.3308157983266590E-05
  5.0462655302591384E-05
  4.9848576534977570E-05
  4.9918343735310850E-05
  3.7080760155438741E-05
  4.0354686703492037E-05
  1.8675407174741440E-05
  1.7330524055156758E-05
  4.3650045282249315E-05
  3.9543768332268675E-05
  3.9543765845530517E-05
  4.3516936249627523E-05
  2.6853024444067374E-05
  7.6631312831319258E-05
  1.0153869724404704E-05
  1.0129431942990447E-05
  1.0151734924312374E-05
  1.0130318469316024E-05
  1.9947110730783243E-05
  3.0867463984223107E-05
  1.4614177039746499E-05
  1.3604315401913373E-05
  1.3559333404468765E-05
  3.4810691463212758E-05
  2.6770012132749804E-05
  3.4773149374219063E-05
  4.6142859115031434E-05
  5.3385878148890564E-05
  3.8754677197345199E-05
  5.9870240630237315E-05
  4.4683094305393958E-05
  4.4817362125876596E-05
  5.3180026965471064E-05
  3.2162187043500054E-05
  3.2162191597238910E-05
  2.8252555764607495E-05
  2.8865501684144086E-05
  3.4144929759272302E-05
  4.1998000972116376E-05
  4.4747857046917692E-05
  4.7856824741261657E-05
  2.2420956419470425E-05
  2.2429136027946894E-05
  2.2420355084075074E-05
  2.2419036334759904E-05
  5.3923522330990023E-05
  3.7079235167932032E-05
  3.6024065950450422E-05
  6.4495753821985585E-05
  4.9811068473653927E-05
  1.9394829311129149E-05
  1.9413288774210136E-05
  1.7952166219233283E-05
  2.5104126272597896E-05
  1.8644112084412613E-05
  3.5008666374949450E-05
  9.0860079719305014E-06
  5.7323981405832360E-05
  6.2173575524706765E-05
  4.5037129220311598E-05
  4.1850077853457379E-05
  5.7929087517960490E-05
  1.0344304394061366E-04
  2.9262826746105033E-05
  2.9268567453229769E-05
  2.5098711074841589E-05