# vtk DataFile Version 3.0
VTK datafile generated by Trushant
ASCII
DATASET UNSTRUCTURED_GRID
POINTS 13471 double
  0.0000000000000000E+00	  0.0000000000000000E+00	  0.0000000000000000E+00
  0.0000000000000000E+00	  1.0000000000000000E+00	  0.0000000000000000E+00
  1.0000000000000000E+00	  1.0000000000000000E+00	  0.0000000000000000E+00
  1.0000000000000000E+00	  0.0000000000000000E+00	  0.0000000000000000E+00
  0.0000000000000000E+00	  9.9999999999811039E-03	  0.0000000000000000E+00
  0.0000000000000000E+00	  1.9999999999962371E-02	  0.0000000000000000E+00
  0.0000000000000000E+00	  2.9999999999943069E-02	  0.0000000000000000E+00
  0.0000000000000000E+00	  3.9999999999921862E-02	  0.0000000000000000E+00
  0.0000000000000000E+00	  4.9999999999899659E-02	  0.0000000000000000E+00
  0.0000000000000000E+00	  5.9999999999878373E-02	  0.0000000000000000E+00
  0.0000000000000000E+00	  6.9999999999860507E-02	  0.0000000000000000E+00
  0.0000000000000000E+00	  7.9999999999845181E-02	  0.0000000000000000E+00
  0.0000000000000000E+00	  8.9999999999829897E-02	  0.0000000000000000E+00
  0.0000000000000000E+00	  9.9999999999814626E-02	  0.0000000000000000E+00
  0.0000000000000000E+00	  1.0999999999979940E-01	  0.0000000000000000E+00
  0.0000000000000000E+00	  1.1999999999978320E-01	  0.0000000000000000E+00
  0.0000000000000000E+00	  1.2999999999976089E-01	  0.0000000000000000E+00
  0.0000000000000000E+00	  1.3999999999973281E-01	  0.0000000000000000E+00
  0.0000000000000000E+00	  1.4999999999970359E-01	  0.0000000000000000E+00
  0.0000000000000000E+00	  1.5999999999967451E-01	  0.0000000000000000E+00
  0.0000000000000000E+00	  1.6999999999964530E-01	  0.0000000000000000E+00
  0.0000000000000000E+00	  1.7999999999961619E-01	  0.0000000000000000E+00
  0.0000000000000000E+00	  1.8999999999958700E-01	  0.0000000000000000E+00
  0.0000000000000000E+00	  1.9999999999955789E-01	  0.0000000000000000E+00
  0.0000000000000000E+00	  2.0999999999952881E-01	  0.0000000000000000E+00
  0.0000000000000000E+00	  2.1999999999949960E-01	  0.0000000000000000E+00
  0.0000000000000000E+00	  2.2999999999947041E-01	  0.0000000000000000E+00
  0.0000000000000000E+00	  2.3999999999944130E-01	  0.0000000000000000E+00
  0.0000000000000000E+00	  2.4999999999941211E-01	  0.0000000000000000E+00
  0.0000000000000000E+00	  2.5999999999938300E-01	  0.0000000000000000E+00
  0.0000000000000000E+00	  2.6999999999935381E-01	  0.0000000000000000E+00
  0.0000000000000000E+00	  2.7999999999932468E-01	  0.0000000000000000E+00
  0.0000000000000000E+00	  2.8999999999929549E-01	  0.0000000000000000E+00
  0.0000000000000000E+00	  2.9999999999926641E-01	  0.0000000000000000E+00
  0.0000000000000000E+00	  3.0999999999923722E-01	  0.0000000000000000E+00
  0.0000000000000000E+00	  3.1999999999920808E-01	  0.0000000000000000E+00
  0.0000000000000000E+00	  3.2999999999917901E-01	  0.0000000000000000E+00
  0.0000000000000000E+00	  3.3999999999914982E-01	  0.0000000000000000E+00
  0.0000000000000000E+00	  3.4999999999912068E-01	  0.0000000000000000E+00
  0.0000000000000000E+00	  3.5999999999909149E-01	  0.0000000000000000E+00
  0.0000000000000000E+00	  3.6999999999906241E-01	  0.0000000000000000E+00
  0.0000000000000000E+00	  3.7999999999903322E-01	  0.0000000000000000E+00
  0.0000000000000000E+00	  3.8999999999900409E-01	  0.0000000000000000E+00
  0.0000000000000000E+00	  3.9999999999897490E-01	  0.0000000000000000E+00
  0.0000000000000000E+00	  4.0999999999894582E-01	  0.0000000000000000E+00
  0.0000000000000000E+00	  4.1999999999891668E-01	  0.0000000000000000E+00
  0.0000000000000000E+00	  4.2999999999888749E-01	  0.0000000000000000E+00
  0.0000000000000000E+00	  4.3999999999885842E-01	  0.0000000000000000E+00
  0.0000000000000000E+00	  4.4999999999882923E-01	  0.0000000000000000E+00
  0.0000000000000000E+00	  4.5999999999879998E-01	  0.0000000000000000E+00
  0.0000000000000000E+00	  4.6999999999877079E-01	  0.0000000000000000E+00
  0.0000000000000000E+00	  4.7999999999874182E-01	  0.0000000000000000E+00
  0.0000000000000000E+00	  4.8999999999871258E-01	  0.0000000000000000E+00
  0.0000000000000000E+00	  4.9999999999869432E-01	  0.0000000000000000E+00
  0.0000000000000000E+00	  5.0999999999870982E-01	  0.0000000000000000E+00
  0.0000000000000000E+00	  5.1999999999873614E-01	  0.0000000000000000E+00
  0.0000000000000000E+00	  5.2999999999876257E-01	  0.0000000000000000E+00
  0.0000000000000000E+00	  5.3999999999878878E-01	  0.0000000000000000E+00
  0.0000000000000000E+00	  5.4999999999881521E-01	  0.0000000000000000E+00
  0.0000000000000000E+00	  5.5999999999884154E-01	  0.0000000000000000E+00
  0.0000000000000000E+00	  5.6999999999886786E-01	  0.0000000000000000E+00
  0.0000000000000000E+00	  5.7999999999889418E-01	  0.0000000000000000E+00
  0.0000000000000000E+00	  5.8999999999892050E-01	  0.0000000000000000E+00
  0.0000000000000000E+00	  5.9999999999894682E-01	  0.0000000000000000E+00
  0.0000000000000000E+00	  6.0999999999897314E-01	  0.0000000000000000E+00
  0.0000000000000000E+00	  6.1999999999899946E-01	  0.0000000000000000E+00
  0.0000000000000000E+00	  6.2999999999902578E-01	  0.0000000000000000E+00
  0.0000000000000000E+00	  6.3999999999905210E-01	  0.0000000000000000E+00
  0.0000000000000000E+00	  6.4999999999907843E-01	  0.0000000000000000E+00
  0.0000000000000000E+00	  6.5999999999910486E-01	  0.0000000000000000E+00
  0.0000000000000000E+00	  6.6999999999913118E-01	  0.0000000000000000E+00
  0.0000000000000000E+00	  6.7999999999915739E-01	  0.0000000000000000E+00
  0.0000000000000000E+00	  6.8999999999918371E-01	  0.0000000000000000E+00
  0.0000000000000000E+00	  6.9999999999921014E-01	  0.0000000000000000E+00
  0.0000000000000000E+00	  7.0999999999923646E-01	  0.0000000000000000E+00
  0.0000000000000000E+00	  7.1999999999926279E-01	  0.0000000000000000E+00
  0.0000000000000000E+00	  7.2999999999928922E-01	  0.0000000000000000E+00
  0.0000000000000000E+00	  7.3999999999931543E-01	  0.0000000000000000E+00
  0.0000000000000000E+00	  7.4999999999934175E-01	  0.0000000000000000E+00
  0.0000000000000000E+00	  7.5999999999936807E-01	  0.0000000000000000E+00
  0.0000000000000000E+00	  7.6999999999939450E-01	  0.0000000000000000E+00
  0.0000000000000000E+00	  7.7999999999942071E-01	  0.0000000000000000E+00
  0.0000000000000000E+00	  7.8999999999944703E-01	  0.0000000000000000E+00
  0.0000000000000000E+00	  7.9999999999947335E-01	  0.0000000000000000E+00
  0.0000000000000000E+00	  8.0999999999949979E-01	  0.0000000000000000E+00
  0.0000000000000000E+00	  8.1999999999952611E-01	  0.0000000000000000E+00
  0.0000000000000000E+00	  8.2999999999955232E-01	  0.0000000000000000E+00
  0.0000000000000000E+00	  8.3999999999957875E-01	  0.0000000000000000E+00
  0.0000000000000000E+00	  8.4999999999960507E-01	  0.0000000000000000E+00
  0.0000000000000000E+00	  8.5999999999963139E-01	  0.0000000000000000E+00
  0.0000000000000000E+00	  8.6999999999965771E-01	  0.0000000000000000E+00
  0.0000000000000000E+00	  8.7999999999968415E-01	  0.0000000000000000E+00
  0.0000000000000000E+00	  8.8999999999971036E-01	  0.0000000000000000E+00
  0.0000000000000000E+00	  8.9999999999973668E-01	  0.0000000000000000E+00
  0.0000000000000000E+00	  9.0999999999976311E-01	  0.0000000000000000E+00
  0.0000000000000000E+00	  9.1999999999978943E-01	  0.0000000000000000E+00
  0.0000000000000000E+00	  9.2999999999981564E-01	  0.0000000000000000E+00
  0.0000000000000000E+00	  9.3999999999984196E-01	  0.0000000000000000E+00
  0.0000000000000000E+00	  9.4999999999986839E-01	  0.0000000000000000E+00
  0.0000000000000000E+00	  9.5999999999989472E-01	  0.0000000000000000E+00
  0.0000000000000000E+00	  9.6999999999992104E-01	  0.0000000000000000E+00
  0.0000000000000000E+00	  9.7999999999994747E-01	  0.0000000000000000E+00
  0.0000000000000000E+00	  9.8999999999997368E-01	  0.0000000000000000E+00
  9.9999999999811039E-03	  1.0000000000000000E+00	  0.0000000000000000E+00
  1.9999999999962371E-02	  1.0000000000000000E+00	  0.0000000000000000E+00
  2.9999999999943069E-02	  1.0000000000000000E+00	  0.0000000000000000E+00
  3.9999999999921862E-02	  1.0000000000000000E+00	  0.0000000000000000E+00
  4.9999999999899659E-02	  1.0000000000000000E+00	  0.0000000000000000E+00
  5.9999999999878373E-02	  1.0000000000000000E+00	  0.0000000000000000E+00
  6.9999999999860507E-02	  1.0000000000000000E+00	  0.0000000000000000E+00
  7.9999999999845181E-02	  1.0000000000000000E+00	  0.0000000000000000E+00
  8.9999999999829897E-02	  1.0000000000000000E+00	  0.0000000000000000E+00
  9.9999999999814626E-02	  1.0000000000000000E+00	  0.0000000000000000E+00
  1.0999999999979940E-01	  1.0000000000000000E+00	  0.0000000000000000E+00
  1.1999999999978320E-01	  1.0000000000000000E+00	  0.0000000000000000E+00
  1.2999999999976089E-01	  1.0000000000000000E+00	  0.0000000000000000E+00
  1.3999999999973281E-01	  1.0000000000000000E+00	  0.0000000000000000E+00
  1.4999999999970359E-01	  1.0000000000000000E+00	  0.0000000000000000E+00
  1.5999999999967451E-01	  1.0000000000000000E+00	  0.0000000000000000E+00
  1.6999999999964530E-01	  1.0000000000000000E+00	  0.0000000000000000E+00
  1.7999999999961619E-01	  1.0000000000000000E+00	  0.0000000000000000E+00
  1.8999999999958700E-01	  1.0000000000000000E+00	  0.0000000000000000E+00
  1.9999999999955789E-01	  1.0000000000000000E+00	  0.0000000000000000E+00
  2.0999999999952881E-01	  1.0000000000000000E+00	  0.0000000000000000E+00
  2.1999999999949960E-01	  1.0000000000000000E+00	  0.0000000000000000E+00
  2.2999999999947041E-01	  1.0000000000000000E+00	  0.0000000000000000E+00
  2.3999999999944130E-01	  1.0000000000000000E+00	  0.0000000000000000E+00
  2.4999999999941211E-01	  1.0000000000000000E+00	  0.0000000000000000E+00
  2.5999999999938300E-01	  1.0000000000000000E+00	  0.0000000000000000E+00
  2.6999999999935381E-01	  1.0000000000000000E+00	  0.0000000000000000E+00
  2.7999999999932468E-01	  1.0000000000000000E+00	  0.0000000000000000E+00
[...]
CELL_DATA 26540
SCALARS Temperature double
LOOKUP_TABLE default
  3.8720953853373083E-02
  5.3031218998154467E-02
  3.2243823649845613E-02
  3.2207442207558099E-02
  3.2069081806571288E-02
  9.3782712017730606E-03
  9.3908217500671895E-03
  9.3782316292857233E-03
  9.4257232221626654E-03
  5.9067067995826984E-02
  2.6639697396981583E-02
  2.5917256478210166E-02
  2.5918988951699903E-02
  2.6644642862350004E-02
  2.6639440949830975E-02
  2.5912930368031693E-02
  5.3666542220327809E-02
  5.1995008283265663E-02
  5.1959808810192840E-02
  3.8244877855705690E-02
  3.8201722919354981E-02
  3.8154721749452065E-02
  6.0380479012810779E-03
  6.1441110664161016E-03
  5.3479934357047308E-02
  5.3434601883823971E-02
  2.8184259327512024E-02
  4.4772120155002600E-02
  4.4621538301754478E-02
  5.3462508769116936E-02
  4.9326891508895847E-02
  5.0489374004698787E-02
  2.6692896750634906E-02
  2.6425531385251697E-02
  2.6413885719376026E-02
  2.6575551658752260E-02
  2.4575857753570168E-02
  2.4665257415097210E-02
  2.4659292118288847E-02
  4.8600202713530724E-03
  4.8460851663497629E-03
  2.3859130320645881E-02
  2.3948824240035919E-02
  2.3947952327437558E-02
  6.0379803494927081E-02
  5.5920986938003341E-02
  3.1024138795713360E-02
  8.5623517581390994E-03
  8.6182825491290336E-03
  8.6030704251089194E-03
  8.5695464342575352E-03
  2.4466038597956891E-02
  2.4460308247737747E-02
  2.4602751225603611E-02
  2.4452055909762294E-02
  2.3048705448597162E-02
  2.3045754175770143E-02
  2.3088847871239729E-02
  2.3056803405128661E-02
  5.4617844712548068E-02
  5.4231138384612881E-02
  5.8380765879049536E-02
  1.7369957037540570E-02
  1.8577466305968619E-02
  1.7185712582074297E-02
  1.8427695855549094E-02
  1.7120435523413930E-02
  1.8393924665112922E-02
  1.7102716617675227E-02
  1.8375382706266399E-02
  3.0942344150792445E-02
  1.3413717409633796E-02
  1.2642626331763294E-02
  1.3391894375668897E-02
  1.2647324950313359E-02
  5.0725614265804637E-02
  4.2081445091607779E-02
  2.7970765981444844E-02
  2.8105507065300614E-02
  2.8074795105265941E-02
  5.9351411472540291E-02
  2.9026121815969835E-02
  5.3185044087840957E-02
  3.8837982803435582E-02
  3.8912750737489142E-02
  3.8849255272311180E-02
  5.2603071271325810E-02
  4.6440303095439298E-02
  4.6365402750362036E-02
  4.6329143336458670E-02
  5.9643437376555641E-02
  1.9611969215507376E-02
  1.9665179331737965E-02
  1.9650601699997067E-02
  5.9047362280546682E-02
  6.4263015275959016E-03
  5.2736255409663018E-03
  6.4369447734422087E-03
  5.2846872134484418E-03
  6.4431316022852776E-03
  5.2885707006439684E-03
  6.4437945088100402E-03
  5.2873427846256314E-03
  6.0000682330883646E-02
  5.9992163202487521E-02
  1.2805967667969197E-02
  1.2437648948873380E-02
  1.2789850070548558E-02
  1.2422250695937324E-02
  1.2767154789961429E-02
  1.2395735262459170E-02
  1.2781412555836010E-02
  1.2412881829504528E-02
  4.0082814039100037E-02
  6.1447263791736075E-02
  2.2223432467540879E-02
  2.2219834853531680E-02
  2.2226182577730347E-02
  2.2231987486313796E-02
  5.0402232688023629E-02
  1.1675627385729158E-02
  1.1660228595046025E-02
  1.1653749783318052E-02
  1.1665252324237629E-02
  6.0200741090383432E-02
  7.1983959740815713E-03
  7.2148599344013424E-03
  7.2346207880162657E-03
  7.2632221793908569E-03
  5.3891217390873880E-02
  4.6378831339778333E-02
  5.8920737500807202E-02
  5.2826012156503940E-02
  4.7868915069588527E-02
  1.5815134308237427E-02
  1.5801200860324695E-02
  1.5680386018737218E-02
  1.5831732108046503E-02
  5.2183609999968947E-02
  3.0738219802206444E-02
  3.0206369523803529E-02
  5.6919970188435125E-03
  5.7129033804710783E-03
  5.6977867430625514E-03
  3.1338195876644097E-02
  2.8319793969766822E-02
  6.1364612992592785E-02
  5.2799664225347077E-02
  5.2335084047693631E-02
  3.8605431325162885E-02
  5.6290111809656415E-02
  3.6777137251201332E-02
  1.6636228849569286E-02
  1.6582748940769661E-02
  1.6620998222315882E-02
  3.9935088267593420E-02
  3.9979839335327672E-02
  3.9991691558300582E-02
  5.8329359019234778E-02
  5.8421166699513222E-02
  3.3426900607836534E-02
  2.5401110519193339E-02
  2.5412625991730657E-02
  2.5433924501029083E-02
  2.5415710974266134E-02
  2.4878060889087159E-02
  2.4846035845955083E-02
  2.4777323272090760E-02
  2.4853087899285142E-02
  2.7539036899724253E-02
  2.7499603200897945E-02
  2.7750422839148362E-02
  2.7476123967870230E-02
  5.2885174299997804E-02
  5.2575042480653013E-02
  6.0380139117574172E-02
  5.0040798320322724E-02
  4.9916485579879981E-02
  2.4615715263376085E-02
  2.4577777858614393E-02
  2.4647741598397360E-02
  2.4560141874019399E-02
  5.7543889710471821E-02
  2.3855584101057283E-02
  2.3848103656453581E-02
  2.3940244511510958E-02
  2.3840340998409926E-02
  1.8024871160475023E-02
  1.7926183586320157E-02
  5.6941014761926222E-02
  4.0170806483093423E-02
  4.0248492479315341E-02
  4.0260729338511755E-02
  9.6343537415173857E-03
  9.6460657292995432E-03
  9.6101135646705482E-03
  9.6282536295265730E-03
  4.8112582643026827E-02
  4.8063547111430779E-02
  1.2629748560685947E-02
  1.2635794760279982E-02
  1.2675397414944658E-02
  1.2684332775977603E-02
  6.1221088869675470E-02
  4.7449519514439015E-02
  4.0687531382644193E-02
  4.0875855825017127E-02
  4.0617003092344964E-02
  4.0806780831484250E-02
  3.8903834678279715E-02
  3.9024570958490448E-02
  3.8917225892679402E-02
  4.7186746344510075E-02
  7.7611511621871066E-03
  7.7638986476038100E-03
  7.7395572878807602E-03
  7.7098163956317006E-03
  3.8283103495150586E-02
  3.8221410633187507E-02
  5.2479001914242644E-02
  4.4074696186325972E-03
  4.3949747835092682E-03
  4.0193793477771085E-02
  2.4850043405457009E-03
  2.4777317142618588E-03
  2.4834135328025649E-03
  2.4963700564156746E-03
  5.9445328185314818E-02
  6.2228924289820145E-02
  1.6327598036016387E-02
  1.6317116171354687E-02
  1.6589714323006991E-02
  1.6309691682963208E-02
  4.8077749451874124E-02
  2.7953979820537742E-02
  2.7912041131881362E-02
  2.7891040639215256E-02
  5.8278629446893486E-02
  4.1808667796215601E-02
  3.2083827473457088E-03
  3.2178445039393183E-03
  3.2159219141157441E-03
  3.2320613534199218E-03
  3.8209007597968206E-02
  7.9834502171752669E-03
  7.9587361867386845E-03
  8.0169197992012650E-03
  7.9875361042237112E-03
  2.3312381769083190E-02
  2.3293215641942363E-02
  2.3405193455096465E-02
  2.3301082674872371E-02
  5.3102537262891589E-02
  5.3059513507411178E-02
  5.2585865119676063E-02
  5.4111564243630929E-02
  3.9275006037005733E-02
  3.9354659774202383E-02
  3.9301597771553030E-02
  6.0426782940804377E-02
  6.0540700841946113E-02
  8.3672139202376351E-04
  8.5095087504351242E-04
  8.3879562061686414E-04
  8.3925091049579729E-04
  3.3113665966660884E-02
  5.2782909762813711E-02
  2.5185188959020298E-02
  2.5052306107002136E-02
  2.5011432034687964E-02
  2.5095160766698849E-02
  6.2148373149512541E-02
  5.7181800423210839E-02
  4.4943361029074001E-02
  2.8556115253544186E-02
  2.8638286097774978E-02
  2.8608098648031616E-02
  5.9671372435393687E-02
  6.1874210631044702E-02
  2.6672518206091022E-02
  5.3349857288818518E-02
  4.9932547074524533E-03
  4.9795550855620896E-03
  4.9817527304626477E-03
  5.0108972135169431E-03
  7.4283860937202411E-03
  7.4560276730022447E-03
  7.4762035414405962E-03
  7.4811395229874367E-03
  5.0185379167331970E-02
  4.3750811619801211E-02
  3.6720650457142040E-02
  4.3384822020507328E-02
  4.3367877334288235E-02
  4.3213334458724620E-02
  1.2654497029441627E-02
  1.2180416962311539E-02
  1.2646745353864390E-02
  1.2172405723531414E-02
  1.2616281401940372E-02
  1.2143606680459548E-02
  5.5256193356052689E-02
  3.8225050924422098E-02
  5.5195739762983906E-02
  5.1522462670716605E-02
  1.2478131274194948E-02
  1.2445100109113734E-02
  1.2459896088429285E-02
  1.2458814033949757E-02
  3.8563197603947108E-02
  5.1455499166477854E-02
  5.0901296110921743E-02
  6.0790415086774727E-02
  3.8675314252136529E-02
  3.8525225901300489E-02
  3.8778869943552327E-02
  3.8626543176449604E-02
  3.8651352227417918E-02
  3.8508551156646018E-02
  5.4865922302918459E-02
  3.3138440310924097E-02
  3.2953356566803739E-02
  3.3092686108701468E-02
  5.7483487325975659E-04
  5.7469072975385174E-04
  5.7703713061458303E-04
  5.7482221968737897E-04
  4.7126185002335498E-04
  4.6939289837479562E-04
  4.7364074716373203E-04
  4.7019502187580712E-04
  5.5220987465142667E-02
  5.3206694970950194E-02
  5.3179412232417615E-02
  5.6787505584091479E-02
  5.2280314007747672E-02
  5.2416496192353730E-02
  1.3940143299706496E-02
  1.3881088313605908E-02
  1.3919842721254117E-02
  1.3883616921774857E-02
  5.5280515740436999E-02
  1.9467512198698324E-02
  1.9461732748796905E-02
  1.9501184502104231E-02
  1.9447035007249470E-02
  3.2634795213877112E-02
  3.2591116338610775E-02
  3.2459159095944289E-02
  3.6549661081418307E-02
  3.2071312402465212E-02
  3.2644396531713735E-02
  3.2600951693574902E-02
  3.2031315684129612E-02
  3.2612516286628555E-02
  3.2044660962824073E-02
  5.5674151807513360E-02
  2.3645110438929523E-03
  4.2937069176798882E-02
  3.6761470783139343E-02
  9.6379954902323475E-04
  9.6309900030019675E-04
  9.7688277558710050E-04
  4.1353301825924935E-02
  1.3143039134582333E-03
  1.3338845891319282E-03
  1.3175748324895035E-03
  1.3182049882376275E-03
  5.1052815241387745E-02
  1.2410124414652855E-02
  1.2013347244036930E-02
  5.7989823292144346E-02
  5.7674980641249422E-02
  5.9856173650071766E-02
  5.0906435060514899E-02
  5.0556423483172942E-02
  5.3313042342051413E-02
  4.3186797751746504E-02
  9.8104563545009880E-03
  9.8226178826226491E-03
  9.8093548066857609E-03
  9.8512778146382408E-03
  2.3495690047322963E-03
  3.7729534600737698E-02
  3.4453094833936389E-02
  6.0755145728185904E-02
  6.0561664493079995E-02
  5.5871109300620322E-02
  5.4770113764455099E-02
  5.8257313464424441E-02
  5.7808583688180475E-02
  5.1773505374949257E-02
  5.6961052041529327E-02
  4.2331624755658596E-02
  4.1823391240403615E-02
  5.1723383137789784E-02
  5.8538362405442246E-02
  3.7997531080739992E-02
  5.8354338516334363E-02
  2.8363405528096731E-02
  2.8235767088006319E-02
  2.8234890884513468E-02
  2.8211292109730141E-02
  5.9229774527975031E-02
  3.6199619552792661E-02
  3.5714547587581150E-02
  5.4851391688399594E-02
  5.9866479660873974E-02
  4.0859906570728174E-02
  4.5895863155956049E-02
  4.6733182315970047E-02
  4.6635441619611959E-02
  4.5793898122248052E-02
  4.4617222160248807E-03
  4.4596003698551719E-03
  4.4487382765817209E-03
  5.8005312227117717E-02
  2.4175698417969741E-02
  2.4128307977797015E-02
  2.4165232895808974E-02
  2.4111700390435337E-02
  7.8813825076675410E-03
  7.9406313289464622E-03
  7.9179063530354973E-03
  7.8887077880885146E-03
  4.9135956951344442E-02
  4.9052716944428296E-02
  1.9579206915724737E-02
  1.9484721055169928E-02
  1.9575800597618171E-02
  1.9570757114225873E-02
  3.4842001360350643E-02
  3.5361011577768366E-02
  5.1874218701542810E-02
  5.1652150517898565E-02
  2.6698772320015215E-02
  2.6682319446477250E-02
  2.6800946038723985E-02
  2.6688846086946882E-02
  4.6290648108247387E-02
  4.6205022402021401E-02
  4.6078873740591060E-02
  5.5565505903706153E-02
  6.1778890210712985E-02
  5.6646176727166930E-02
  5.7110171794370557E-02
  4.4493852676585767E-02
  4.4036636208524729E-02
  2.5905308275499923E-02
  2.5655862652521542E-02
  2.5652025858415417E-02
  2.5783709262663802E-02
  3.7976026679339123E-02
  1.0103207012711904E-02
  9.7395687466845880E-03
  9.7670798964416966E-03
  1.0079304093462733E-02
  9.5789788011741532E-03
  9.7884722712266465E-03
  1.0133107285452985E-02
  9.7988248659861988E-03
  5.9663103923475271E-02
  4.9031822494503156E-02
  6.0845117395264089E-02
  2.0155760443143485E-02
  2.0150068351373580E-02
  2.0211638832193509E-02
  2.0169071694584033E-02
  5.9074061192023762E-02
  6.0817561028582073E-02
  5.9375249880888976E-03
  5.9159592848681431E-03
  5.9523881639132002E-03
  5.9224112978341495E-03
  3.4145770851378765E-02
  3.4322359800178767E-02
  3.4274541664301737E-02
  4.3659319103924114E-02
  2.1943161756709920E-02
  2.1867968714656745E-02
  2.1879405570011411E-02
  5.4583661003974895E-02
  4.9790105201513266E-02
  4.8652831732487207E-03
  4.8478640322888629E-03
  4.4176224415222058E-02
  5.3874084691756356E-03
  5.3867209225888129E-03
  5.4225995073690471E-03
  5.3856290125940407E-03
  5.4282795532426598E-02
  6.1969188877788441E-02
  1.7160778459975913E-02
  1.7135576752169392E-02
  1.7169786372825034E-02
  1.7207126975853342E-02
  5.5135282968848294E-02
  3.5480944607285639E-02
  3.2297764835019130E-02
  2.6461518364877534E-02
  4.2934685506644539E-02
  3.3405699448269995E-03
  5.0288087069467732E-02
  1.1160536449106626E-02
  1.1157365044325535E-02
  1.1176377336822864E-02
  1.1143471925061797E-02
  8.5419426670602996E-03
  5.6197397968722244E-02
  4.8364236057585136E-02
  2.4172555566251846E-02
  2.4168548229664116E-02
  2.4155369219445118E-02
  1.2645892887790269E-02
  1.2628856825335292E-02
  1.2621700483153000E-02
  1.2633346999647405E-02
  5.3871849948587236E-02
  8.1664603333875679E-03
  8.1606352771780109E-03
  7.1972656232808276E-03
  7.2023795331243954E-03
  8.1423904286912832E-03
  7.1812941211650836E-03
  6.1558783035712834E-02
  6.1412334068273185E-02
  4.2259278743828191E-02
  4.2268483844713531E-02
  4.2299425133977463E-02
  4.0191694979115705E-02
  4.0258724072993551E-02
  3.9822027305137016E-02
  5.1824223918669414E-02
  4.7967840140344241E-02
  4.7465466267281008E-02
  5.3484685962475458E-02
  2.8017710073094157E-02
  2.7992731895246318E-02
  1.0953606977907131E-02
  4.8904902705435176E-02
  4.3439413797306183E-02
  4.3384041881654768E-02
  4.3412935857872065E-02
  1.6998553742002064E-02
  1.6976834322865928E-02
  1.5762196521262060E-02
  1.5742636898433717E-02
  1.5717108480074429E-02
  1.6960518343448965E-02
  1.6960526661813368E-02
  1.5726396148891514E-02
  5.9308060537939869E-02
  5.0670201193158938E-02
  4.8708128836242821E-02
  4.9143818268299382E-02
  4.3770282890097635E-02
  3.4746355766033125E-02
  4.4158420399831602E-02
  4.4007829048771541E-02
  3.6749594383386743E-02
  3.6642792030586999E-02
  3.6668480131678241E-02
  3.2154363771503082E-02
  5.1452932706867620E-02
  6.2149028086277466E-02
  4.7714301114179875E-02
  4.7653548910732028E-02
  5.9883266125279368E-02
  6.1431461007712858E-02
  5.6355191539035322E-02
  6.0609744552052293E-02
  7.1929290730658735E-03
  7.1960335418492401E-03
  7.1729906071698064E-03
  7.1396672977995703E-03
  5.1564203722320560E-02
  5.1229571220839570E-02
  4.2766155500302945E-02
  4.3117337695863268E-02
  6.2674724492207706E-02
  1.8436238297191900E-02
  1.8338180210083179E-02
  5.2061845638782668E-02
  5.2028839795455972E-02
  5.8330380053981813E-02
  1.6106431525726144E-03
  1.6099187219567684E-03
  1.6660415547808400E-03
  1.6314276870170623E-03
  1.4645416538210694E-02
  1.4619799682778493E-02
  1.4637667309952838E-02
  1.4651491574272648E-02
  2.4696294139903464E-02
  2.4648211534942809E-02
  2.4633401264211950E-02
  2.4630886856994841E-02
  1.2299591828108048E-02
  1.2346300681913133E-02
  1.2348967399603289E-02
  1.2391733136657783E-02
  5.3756678954103305E-02
  5.7872944524338277E-02
  7.3942615274679930E-03
  7.3954738480055803E-03
  7.3730130800593319E-03
  7.3964124710609426E-03
  3.4130306368377212E-04
  3.4090003211012488E-04
  3.5381172050394475E-04
  3.6077348074946042E-04
  3.4790747785463824E-04
  3.4199346905895559E-04
  3.5388758415585742E-04
  3.5490811947705815E-04
  3.3573866117451105E-02
  3.3772567257700191E-02
  3.3743821229292655E-02
  7.2143374265799462E-03
  7.2348542865326767E-03
  6.6352671725927251E-03
  6.6514209890935413E-03
  7.2190277415291621E-03
  6.6395303787843982E-03
  7.2916368197045948E-03
  6.7201030964162845E-03
  6.0700180914620505E-03
  6.0689809967427802E-03
  1.3914482199706063E-02
  1.3871271196678692E-02
  1.3909176243114843E-02
  1.3900426223485156E-02
  2.2633079880966731E-02
  2.2590225813392567E-02
  2.2766411176172216E-02
  2.2581859955445732E-02
  9.9451331161246916E-03
  9.9357058093164884E-03
  4.1300561522193621E-02
  4.5472591441933934E-02
  5.9443461064462334E-02
  1.6290388266118880E-02
  1.6239627324851753E-02
  1.6277726777168999E-02
  4.8231788511737851E-02
  4.8098288978120823E-02
  4.9353840090448901E-02
  4.9164358779429061E-02
  4.9254063593329643E-02
  5.7522853660353715E-02
  6.0286536830884800E-02
  6.0177876822641731E-02
  4.6786271618258934E-02
  4.6728885341267609E-02
  5.3644720205158987E-02
  8.0752351809645331E-04
  8.0827945133804264E-04
  8.1048349165580989E-04
  8.0952920919652156E-04
  6.2221559455758697E-02
  4.3441908850438199E-03
  4.2489759306198914E-03
  5.4030409400883640E-02
  5.6499589347723089E-02
  1.0922833478276680E-02
  1.1027524381376207E-02
  1.1059803711074626E-02
  1.1049645698423042E-02
  6.2001653766360403E-02
  6.1986473515659557E-02
  4.2622269277869600E-02
  5.6051141280692902E-04
  5.5988171561252640E-04
  5.5209391051319037E-04
  5.5608848671937861E-04
  5.7070319922220285E-04
  5.6212332553745256E-04
  5.5217125180446179E-04
  5.5499137552482295E-04
  5.5076982194864892E-02
  5.3015734973281152E-02
  4.8985445089139719E-02
  6.0700165727683303E-02
  6.0722780913331852E-02
  6.2323821987591149E-02
  1.3666365611952062E-02
  1.3640147563058001E-02
  1.3669547399978506E-02
  1.3657226563054615E-02
  4.2918420463721178E-02
  4.2934100803417689E-02
  4.2982373339542621E-02
  7.3285188071087132E-03
  7.3148636994021998E-03
  7.3340494192571668E-03
  7.3344892711698102E-03
  3.2708605722604325E-02
  3.2667908143423428E-02
  3.2532281664317368E-02
  3.1078583769232629E-02
  3.1046896836149029E-02
  3.0963997626231757E-02
  5.9278047091840189E-02
  3.4536644459403992E-02
  4.8239537379104096E-03
  4.8361319693631562E-03
  4.8380831756598703E-03
  4.6098870819906060E-02
  2.1362383423902533E-02
  2.1348881223157722E-02
  2.1584341399482489E-02
  2.1344891822462280E-02
  2.3378364150466246E-02
  2.3334647773152181E-02
  2.3291065249928886E-02
  2.3327851853947201E-02
  3.7493076085356958E-02
  3.7396207376539918E-02
  3.7411750150440605E-02
  5.6560003074274147E-02
  5.1788210819724935E-02
  4.5445436182101465E-02
  5.4358384374994323E-02
  5.3463762276290926E-02
  2.8031103994852591E-02
  6.1782075596126251E-02
  5.3918175878250832E-02
  3.3996808637034810E-02
  5.4586758621451244E-02
  5.4662787886496762E-02
  2.8654777200364526E-02
  5.1301932145780806E-02
  4.3338493194800265E-02
  4.3303491537786377E-02
  4.3196906992250018E-02
  3.2632767600638136E-02
  3.2472489466649934E-02
  3.1826511393444938E-02
  3.1817805226809125E-02
  2.8354194159111192E-02
  2.8419970311954455E-02
  2.8388752278954304E-02
  3.3926222708775308E-02
  5.4098612417553614E-02
  6.2187076758157565E-02
  1.3843782046701924E-02
  1.3791274498801690E-02
  1.3828219352415537E-02
  1.3791333921741686E-02
  6.0810082947572702E-02
  4.7091750860098508E-02
  2.4882562281161209E-02
  6.7533499003427739E-03
  6.8013901527686329E-03
  4.9696150089279495E-02
  2.9741632889067990E-02
  6.2711764644387949E-02
  5.6720624861801093E-02
  5.1205615075209737E-02
  5.8322914188344739E-02
  5.9827119174994101E-02
  4.7433541589427732E-02
  4.7337380182677767E-02
  4.9384266213282978E-02
  3.3488662450356269E-02
  3.3460102704188623E-02
  4.2847106481710646E-02
  4.2710408662681519E-02
  4.2614800749541458E-02
  5.0479998718383795E-02
  3.4814876632450496E-02
  5.5612281338608099E-02
  1.2513554769032018E-02
  1.2474686317783968E-02
  1.2483022465991126E-02
  1.2490116971633007E-02
  6.1893881517509838E-02
  4.7461850064891599E-02
  4.7051604704461243E-02
  5.8421823215192924E-02
  5.8242184820111662E-02
  1.8940579089601256E-02
  1.8975143631317925E-02
  1.8977326792770800E-02
  3.7126277152932131E-02
  3.4542798947950454E-02
  1.8975878859366128E-02
  2.5588678372233997E-02
  5.2701590850531707E-02
  5.2817626158025634E-02
  5.1943872166716476E-02
  5.1782765466550966E-02
  4.3919173991333299E-02
  5.6952041290350794E-02
  4.5668941481864012E-02
  4.5586710691974799E-02
  4.5498624921055796E-02