# vtk DataFile Version 3.0
VTK datafile generated by Trushant
ASCII
DATASET UNSTRUCTURED_GRID
POINTS 13471 double
  0.0000000000000000E+00	  0.0000000000000000E+00	  0.0000000000000000E+00
  0.0000000000000000E+00	  1.0000000000000000E+00	  0.0000000000000000E+00
  1.0000000000000000E+00	  1.0000000000000000E+00	  0.0000000000000000E+00
  1.0000000000000000E+00	  0.0000000000000000E+00	  0.0000000000000000E+00
  0.0000000000000000E+00	  9.9999999999811039E-03	  0.0000000000000000E+00
  0.0000000000000000E+00	  1.9999999999962371E-02	  0.0000000000000000E+00
  0.0000000000000000E+00	  2.9999999999943069E-02	  0.0000000000000000E+00
  0.0000000000000000E+00	  3.9999999999921862E-02	  0.0000000000000000E+00
  0.0000000000000000E+00	  4.9999999999899659E-02	  0.0000000000000000E+00
  0.0000000000000000E+00	  5.9999999999878373E-02	  0.0000000000000000E+00
  0.0000000000000000E+00	  6.9999999999860507E-02	  0.0000000000000000E+00
  0.0000000000000000E+00	  7.9999999999845181E-02	  0.0000000000000000E+00
  0.0000000000000000E+00	  8.9999999999829897E-02	  0.0000000000000000E+00
  0.0000000000000000E+00	  9.9999999999814626E-02	  0.0000000000000000E+00
  0.0000000000000000E+00	  1.0999999999979940E-01	  0.0000000000000000E+00
  0.0000000000000000E+00	  1.1999999999978320E-01	  0.0000000000000000E+00
  0.0000000000000000E+00	  1.2999999999976089E-01	  0.0000000000000000E+00
  0.0000000000000000E+00	  1.3999999999973281E-01	  0.0000000000000000E+00
  0.0000000000000000E+00	  1.4999999999970359E-01	  0.0000000000000000E+00
  0.0000000000000000E+00	  1.5999999999967451E-01	  0.0000000000000000E+00
  0.0000000000000000E+00	  1.6999999999964530E-01	  0.0000000000000000E+00
  0.0000000000000000E+00	  1.7999999999961619E-01	  0.0000000000000000E+00
  0.0000000000000000E+00	  1.8999999999958700E-01	  0.0000000000000000E+00
  0.0000000000000000E+00	  1.9999999999955789E-01	  0.0000000000000000E+00
  0.0000000000000000E+00	  2.0999999999952881E-01	  0.0000000000000000E+00
  0.0000000000000000E+00	  2.1999999999949960E-01	  0.0000000000000000E+00
  0.0000000000000000E+00	  2.2999999999947041E-01	  0.0000000000000000E+00
  0.0000000000000000E+00	  2.3999999999944130E-01	  0.0000000000000000E+00
  0.0000000000000000E+00	  2.4999999999941211E-01	  0.0000000000000000E+00
  0.0000000000000000E+00	  2.5999999999938300E-01	  0.0000000000000000E+00
  0.0000000000000000E+00	  2.6999999999935381E-01	  0.0000000000000000E+00
  0.0000000000000000E+00	  2.7999999999932468E-01	  0.0000000000000000E+00
  0.0000000000000000E+00	  2.8999999999929549E-01	  0.0000000000000000E+00
  0.0000000000000000E+00	  2.9999999999926641E-01	  0.0000000000000000E+00
  0.0000000000000000E+00	  3.0999999999923722E-01	  0.0000000000000000E+00
  0.0000000000000000E+00	  3.1999999999920808E-01	  0.0000000000000000E+00
  0.0000000000000000E+00	  3.2999999999917901E-01	  0.0000000000000000E+00
  0.0000000000000000E+00	  3.3999999999914982E-01	  0.0000000000000000E+00
  0.0000000000000000E+00	  3.4999999999912068E-01	  0.0000000000000000E+00
  0.0000000000000000E+00	  3.5999999999909149E-01	  0.0000000000000000E+00
  0.0000000000000000E+00	  3.6999999999906241E-01	  0.0000000000000000E+00
  0.0000000000000000E+00	  3.7999999999903322E-01	  0.0000000000000000E+00
  0.0000000000000000E+00	  3.8999999999900409E-01	  0.0000000000000000E+00
  0.0000000000000000E+00	  3.9999999999897490E-01	  0.0000000000000000E+00
  0.0000000000000000E+00	  4.0999999999894582E-01	  0.0000000000000000E+00
  0.0000000000000000E+00	  4.1999999999891668E-01	  0.0000000000000000E+00
  0.0000000000000000E+00	  4.2999999999888749E-01	  0.0000000000000000E+00
  0.0000000000000000E+00	  4.3999999999885842E-01	  0.0000000000000000E+00
  0.0000000000000000E+00	  4.4999999999882923E-01	  0.0000000000000000E+00
  0.0000000000000000E+00	  4.5999999999879998E-01	  0.0000000000000000E+00
  0.0000000000000000E+00	  4.6999999999877079E-01	  0.0000000000000000E+00
  0.0000000000000000E+00	  4.7999999999874182E-01	  0.0000000000000000E+00
  0.0000000000000000E+00	  4.8999999999871258E-01	  0.0000000000000000E+00
  0.0000000000000000E+00	  4.9999999999869432E-01	  0.0000000000000000E+00
  0.0000000000000000E+00	  5.0999999999870982E-01	  0.0000000000000000E+00
  0.0000000000000000E+00	  5.1999999999873614E-01	  0.0000000000000000E+00
  0.0000000000000000E+00	  5.2999999999876257E-01	  0.0000000000000000E+00
  0.0000000000000000E+00	  5.3999999999878878E-01	  0.0000000000000000E+00
  0.0000000000000000E+00	  5.4999999999881521E-01	  0.0000000000000000E+00
  0.0000000000000000E+00	  5.5999999999884154E-01	  0.0000000000000000E+00
  0.0000000000000000E+00	  5.6999999999886786E-01	  0.0000000000000000E+00
  0.0000000000000000E+00	  5.7999999999889418E-01	  0.0000000000000000E+00
  0.0000000000000000E+00	  5.8999999999892050E-01	  0.0000000000000000E+00
  0.0000000000000000E+00	  5.9999999999894682E-01	  0.0000000000000000E+00
  0.0000000000000000E+00	  6.0999999999897314E-01	  0.0000000000000000E+00
  0.0000000000000000E+00	  6.1999999999899946E-01	  0.0000000000000000E+00
  0.0000000000000000E+00	  6.2999999999902578E-01	  0.0000000000000000E+00
  0.0000000000000000E+00	  6.3999999999905210E-01	  0.0000000000000000E+00
  0.0000000000000000E+00	  6.4999999999907843E-01	  0.0000000000000000E+00
  0.0000000000000000E+00	  6.5999999999910486E-01	  0.0000000000000000E+00
  0.0000000000000000E+00	  6.6999999999913118E-01	  0.0000000000000000E+00
  0.0000000000000000E+00	  6.7999999999915739E-01	  0.0000000000000000E+00
  0.0000000000000000E+00	  6.8999999999918371E-01	  0.0000000000000000E+00
  0.0000000000000000E+00	  6.9999999999921014E-01	  0.0000000000000000E+00
  0.0000000000000000E+00	  7.0999999999923646E-01	  0.0000000000000000E+00
  0.0000000000000000E+00	  7.1999999999926279E-01	  0.0000000000000000E+00
  0.0000000000000000E+00	  7.2999999999928922E-01	  0.0000000000000000E+00
  0.0000000000000000E+00	  7.3999999999931543E-01	  0.0000000000000000E+00
  0.0000000000000000E+00	  7.4999999999934175E-01	  0.0000000000000000E+00
  0.0000000000000000E+00	  7.5999999999936807E-01	  0.0000000000000000E+00
  0.0000000000000000E+00	  7.6999999999939450E-01	  0.0000000000000000E+00
  0.0000000000000000E+00	  7.7999999999942071E-01	  0.0000000000000000E+00
  0.0000000000000000E+00	  7.8999999999944703E-01	  0.0000000000000000E+00
  0.0000000000000000E+00	  7.9999999999947335E-01	  0.0000000000000000E+00
  0.0000000000000000E+00	  8.0999999999949979E-01	  0.0000000000000000E+00
  0.0000000000000000E+00	  8.1999999999952611E-01	  0.0000000000000000E+00
  0.0000000000000000E+00	  8.2999999999955232E-01	  0.0000000000000000E+00
  0.0000000000000000E+00	  8.3999999999957875E-01	  0.0000000000000000E+00
  0.0000000000000000E+00	  8.4999999999960507E-01	  0.0000000000000000E+00
  0.0000000000000000E+00	  8.5999999999963139E-01	  0.0000000000000000E+00
  0.0000000000000000E+00	  8.6999999999965771E-01	  0.0000000000000000E+00
  0.0000000000000000E+00	  8.7999999999968415E-01	  0.0000000000000000E+00
  0.0000000000000000E+00	  8.8999999999971036E-01	  0.0000000000000000E+00
  0.0000000000000000E+00	  8.9999999999973668E-01	  0.0000000000000000E+00
  0.0000000000000000E+00	  9.0999999999976311E-01	  0.0000000000000000E+00
  0.0000000000000000E+00	  9.1999999999978943E-01	  0.0000000000000000E+00
  0.0000000000000000E+00	  9.2999999999981564E-01	  0.0000000000000000E+00
  0.0000000000000000E+00	  9.3999999999984196E-01	  0.0000000000000000E+00
  0.0000000000000000E+00	  9.4999999999986839E-01	  0.0000000000000000E+00
  0.0000000000000000E+00	  9.5999999999989472E-01	  0.0000000000000000E+00
  0.0000000000000000E+00	  9.6999999999992104E-01	  0.0000000000000000E+00
  0.0000000000000000E+00	  9.7999999999994747E-01	  0.0000000000000000E+00
  0.0000000000000000E+00	  9.8999999999997368E-01	  0.0000000000000000E+00
  9.9999999999811039E-03	  1.0000000000000000E+00	  0.0000000000000000E+00
  1.9999999999962371E-02	  1.0000000000000000E+00	  0.0000000000000000E+00
  2.9999999999943069E-02	  1.0000000000000000E+00	  0.0000000000000000E+00
  3.9999999999921862E-02	  1.0000000000000000E+00	  0.0000000000000000E+00
  4.9999999999899659E-02	  1.0000000000000000E+00	  0.0000000000000000E+00
  5.9999999999878373E-02	  1.0000000000000000E+00	  0.0000000000000000E+00
  6.9999999999860507E-02	  1.0000000000000000E+00	  0.0000000000000000E+00
  7.9999999999845181E-02	  1.0000000000000000E+00	  0.0000000000000000E+00
  8.9999999999829897E-02	  1.0000000000000000E+00	  0.0000000000000000E+00
  9.9999999999814626E-02	  1.0000000000000000E+00	  0.0000000000000000E+00
  1.0999999999979940E-01	  1.0000000000000000E+00	  0.0000000000000000E+00
  1.1999999999978320E-01	  1.0000000000000000E+00	  0.0000000000000000E+00
  1.2999999999976089E-01	  1.0000000000000000E+00	  0.0000000000000000E+00
  1.3999999999973281E-01	  1.0000000000000000E+00	  0.0000000000000000E+00
  1.4999999999970359E-01	  1.0000000000000000E+00	  0.0000000000000000E+00
  1.5999999999967451E-01	  1.0000000000000000E+00	  0.0000000000000000E+00
  1.6999999999964530E-01	  1.0000000000000000E+00	  0.0000000000000000E+00
  1.7999999999961619E-01	  1.0000000000000000E+00	  0.0000000000000000E+00
  1.8999999999958700E-01	  1.0000000000000000E+00	  0.0000000000000000E+00
  1.9999999999955789E-01	  1.0000000000000000E+00	  0.0000000000000000E+00
  2.0999999999952881E-01	  1.0000000000000000E+00	  0.0000000000000000E+00
  2.1999999999949960E-01	  1.0000000000000000E+00	  0.0000000000000000E+00
  2.2999999999947041E-01	  1.0000000000000000E+00	  0.0000000000000000E+00
  2.3999999999944130E-01	  1.0000000000000000E+00	  0.0000000000000000E+00
  2.4999999999941211E-01	  1.0000000000000000E+00	  0.0000000000000000E+00
  2.5999999999938300E-01	  1.0000000000000000E+00	  0.0000000000000000E+00
  2.6999999999935381E-01	  1.0000000000000000E+00	  0.0000000000000000E+00
  2.7999999999932468E-01	  1.0000000000000000E+00	  0.0000000000000000E+00
[...]
CELL_DATA 26540
SCALARS Temperature double
LOOKUP_TABLE default
  6.7663720012419645E+01
  7.0929962378139038E+01
  8.7669039227421749E+01
  6.2343331125239644E+01
  8.7695957213486281E+01
  7.9893421256671246E+01
  7.0148517615134878E+01
  7.0126956009324829E+01
  7.9867785654872975E+01
  7.4987816642422686E+01
  8.4659050172783992E+01
  8.4870741831343480E+01
  6.5176066792305619E+01
  6.5389843034429333E+01
  8.4595134439410188E+01
  8.4810394726467962E+01
  7.1013671670360480E+01
  7.9453310481951107E+01
  7.0589099348559273E+01
  8.5365413190736035E+01
  6.4659601451791133E+01
  8.5326953756576444E+01
  6.9643194854165330E+01
  8.0372965907870650E+01
  7.9066849209356008E+01
  7.0961015022948558E+01
  6.0511751060944540E+01
  7.0824827537372371E+01
  7.9195959491265384E+01
  7.4120193148905742E+01
  7.8537955181158509E+01
  7.0307492439331753E+01
  7.5963160752460738E+01
  7.3959321438827160E+01
  7.3958241616322098E+01
  7.5932171704478350E+01
  8.7807546455978937E+01
  8.7783658912385690E+01
  6.2226732510861424E+01
  5.3743694347179130E+01
  9.6263844003572800E+01
  8.8077907727570249E+01
  8.8054373306874226E+01
  6.1958140514968861E+01
  7.6033195151629357E+01
  7.3998228575768394E+01
  6.1530262332748869E+01
  9.4642740489682041E+01
  5.5353304902819701E+01
  9.4640832785909311E+01
  5.5357884450171312E+01
  8.5038050262474883E+01
  6.5005945152317381E+01
  6.5087699804249809E+01
  8.4984107697726827E+01
  8.8801395865848505E+01
  6.1218906232975399E+01
  6.1233601371091218E+01
  8.8764059640962273E+01
  7.5226489264830974E+01
  7.5160229340397549E+01
  7.4280147404299015E+01
  9.2620322361145355E+01
  9.2098618707905828E+01
  5.7303369691598512E+01
  5.7857585696230679E+01
  5.7246762167747384E+01
  5.7816965556631182E+01
  9.2751624399661623E+01
  9.2162650113928933E+01
  6.1483375810359398E+01
  6.7872377551818744E+01
  6.7603283352433266E+01
  8.2120804241035202E+01
  8.2365889080168330E+01
  7.1520368824235248E+01
  6.8546731720174577E+01
  8.8393851356337095E+01
  8.8374172150306435E+01
  6.1633944085107480E+01
  7.3507388667793762E+01
  6.8934370330891454E+01
  7.9106705377728275E+01
  7.8063838003492691E+01
  7.8069142507563257E+01
  7.1949077661016943E+01
  7.1233835935208859E+01
  8.0311023554694259E+01
  6.9682871604042106E+01
  8.0341408828910630E+01
  7.3631519913484354E+01
  9.2289772045543600E+01
  9.2292375430646246E+01
  5.7716788489236620E+01
  7.6357358190096051E+01
  9.6736821296991664E+01
  9.7308244409643095E+01
  5.3246561853488480E+01
  5.2679532432095591E+01
  9.6741887073688801E+01
  9.7311793002942636E+01
  5.3270297982196645E+01
  5.2697269750623072E+01
  7.5587258432678652E+01
  7.5471224708918427E+01
  9.5480234630532777E+01
  9.5625556994539750E+01
  5.4522986097726992E+01
  5.4377664502210621E+01
  5.4505407317737706E+01
  5.4358886538605773E+01
  9.5475682188302414E+01
  9.5621492177385619E+01
  6.9005004656538432E+01
  7.4389645797558941E+01
  8.9131172477976818E+01
  6.0888871586784909E+01
  6.0880473671247515E+01
  8.9094639462793992E+01
  7.1985983118215458E+01
  9.5776234484810104E+01
  5.4226224962447304E+01
  5.4215496090299638E+01
  9.5767393021579906E+01
  7.3944385985300585E+01
  5.6374795234179736E+01
  9.3580405384794787E+01
  5.6432316085407408E+01
  9.3571960804039250E+01
  7.6337704312279897E+01
  6.7934853927595057E+01
  7.6328239605196359E+01
  7.9248729086439369E+01
  6.8691937441339931E+01
  6.4241569467813633E+01
  8.5764856305715924E+01
  8.5844868797202906E+01
  6.4269896922854443E+01
  7.8154082434340566E+01
  6.7025158981919105E+01
  6.6537480587773828E+01
  9.0158678817215062E+01
  5.9828660904489233E+01
  5.9853266805306212E+01
  7.6333506197614980E+01
  6.1645356575802687E+01
  7.4357643394259497E+01
  7.1900770337518679E+01
  7.1693943084067328E+01
  6.4966268444451273E+01
  7.2198375418593216E+01
  8.2487869497841018E+01
  9.3955786984275917E+01
  9.3957546362481338E+01
  5.6050864158961730E+01
  7.9823033849830452E+01
  7.9803799305208003E+01
  7.0216502977780934E+01
  7.4485788477020520E+01
  7.4655911914641806E+01
  8.4517789932805101E+01
  8.6690520639588158E+01
  6.3346339175764172E+01
  6.3342688314917012E+01
  8.6638208921187200E+01
  9.0602652843637159E+01
  5.9372249160284682E+01
  9.0612805062364870E+01
  5.9406900402902949E+01
  8.9781333612089867E+01
  6.0226981490025537E+01
  6.0299553379493872E+01
  8.9771607594961495E+01
  7.9124580214720851E+01
  7.0782709007275201E+01
  7.3991990095097762E+01
  7.9600216159752307E+01
  7.0403657417783236E+01
  9.0873486290805971E+01
  5.9131826261908536E+01
  5.9143332208660063E+01
  9.0866454136671550E+01
  7.4327857404728320E+01
  8.5232427710132583E+01
  6.4810146730515754E+01
  6.4878125762771290E+01
  8.5180914492903966E+01
  5.7886047359139546E+01
  9.2137498666869291E+01
  7.7129176433112548E+01
  7.9463420973420341E+01
  7.9428314199252128E+01
  7.0596317279266259E+01
  5.3366115553311623E+01
  9.6636358122919916E+01
  5.3350223620310487E+01
  9.6632776560112632E+01
  6.9654772904826643E+01
  8.0321317636295916E+01
  5.5619735407791588E+01
  9.4341093810991168E+01
  9.4339646468908725E+01
  5.5675962146352390E+01
  7.4708284259353007E+01
  7.2717638542147327E+01
  8.3985102983671325E+01
  8.3808533485315905E+01
  6.6020854897160291E+01
  6.6198275223974349E+01
  7.5006576445182702E+01
  7.5064987883779722E+01
  7.4994677568155623E+01
  7.2506421803463013E+01
  9.6823930826021325E+01
  5.3184581030898428E+01
  9.6822578971824470E+01
  5.3147427113892419E+01
  7.8152947941153982E+01
  7.1860415069487118E+01
  7.7894374497579207E+01
  5.3504875578267558E+01
  9.6502319070738977E+01
  8.0623672219327204E+01
  5.2410051614260141E+01
  9.7584440236503468E+01
  5.2419928004932110E+01
  9.7577190316874692E+01
  7.5578025993684165E+01
  7.4991584832941868E+01
  9.1309197524398684E+01
  5.8705858708968009E+01
  5.8871819515548331E+01
  9.1290371258379935E+01
  6.8840602916285761E+01
  8.9578850878692734E+01
  6.0428959352955630E+01
  8.9568766371936377E+01
  7.6221109113759951E+01
  6.8380659863269983E+01
  9.6930341745458094E+01
  5.3062498210495569E+01
  5.3075263063050478E+01
  9.6922049957768792E+01
  7.8145786256017843E+01
  5.6952988276051499E+01
  9.3030723275473207E+01
  9.3018743544296214E+01
  5.6988011191373651E+01
  8.9572811314935592E+01
  6.0437544498550103E+01
  6.0479044577549445E+01
  8.9542983048627036E+01
  7.9198698038469018E+01
  7.0834331518092128E+01
  7.0853540850394950E+01
  7.2140225807108479E+01
  7.8285701354756071E+01
  7.8287982420218100E+01
  7.1738373000872642E+01
  7.4055433490419205E+01
  7.4049835982170180E+01
  9.9622223291504667E+01
  5.0381820487677047E+01
  9.9622658923248522E+01
  5.0378707533406171E+01
  8.4453171690351368E+01
  7.9074466233420239E+01
  7.9103452424069701E+01
  7.0961643129020288E+01
  7.0999864234324150E+01
  7.9068950742249257E+01
  7.5290651306300532E+01
  7.2994926203819219E+01
  7.8012094043069183E+01
  8.5988667554687126E+01
  8.5969356886300687E+01
  6.4031487119683121E+01
  7.5544245126894680E+01
  7.4994168902485868E+01
  6.7030950335746525E+01
  7.8966533639200861E+01
  9.7797118237072041E+01
  5.2200902269054232E+01
  9.7793242275773054E+01
  5.2212447314864242E+01
  5.3201007066552066E+01
  9.6766848337643395E+01
  9.6768982908934390E+01
  5.3241558281652011E+01
  7.3625295404416704E+01
  7.8638155431524865E+01
  8.0140540347463812E+01
  8.3360979922592691E+01
  6.6682670683056941E+01
  8.3345255433761594E+01
  9.5219986179766707E+01
  9.5455049587843533E+01
  5.4786723670056148E+01
  5.4551112084141643E+01
  9.5219986569486096E+01
  9.5455226664726482E+01
  7.5975069083768858E+01
  7.5936244667340247E+01
  7.7518643517873841E+01
  7.3333669983698755E+01
  9.1050402047473185E+01
  5.8949665892386570E+01
  5.8968314123269373E+01
  9.1032156613266025E+01
  8.4886882307152618E+01
  7.8748923537496083E+01
  7.8906033803302620E+01
  7.5151020251940409E+01
  6.9176540987984154E+01
  6.9375297305897831E+01
  6.9224875683563326E+01
  6.9432904943399805E+01
  8.0827835930750410E+01
  8.0618057901293810E+01
  7.6000960768501244E+01
  8.6311412781670498E+01
  8.6343622014219349E+01
  6.3695542967926670E+01
  5.0729380591006141E+01
  9.9270193481006530E+01
  9.9274829787735911E+01
  5.0723413259912327E+01
  5.0596192151865147E+01
  9.9402970687459856E+01
  9.9399421959496891E+01
  5.0597950695180714E+01
  7.1820845473548374E+01
  7.9117676896470229E+01
  7.0922064917753389E+01
  7.6484184010750397E+01
  7.1303771125399564E+01
  7.1215967921896237E+01
  8.5447160951017267E+01
  6.4568869999981644E+01
  6.4596133783085918E+01
  8.5443124652419712E+01
  7.3498227134521954E+01
  9.0721227667997169E+01
  5.9293970019799424E+01
  5.9275115431354259E+01
  9.0717540699964033E+01
  8.6622973416683422E+01
  6.3384478765768698E+01
  8.6652863038594518E+01
  6.6312457448896126E+01
  8.7987855684535177E+01
  8.7713128811218894E+01
  6.2300920862429926E+01
  6.2026510186042508E+01
  8.7679382830579598E+01
  8.7953446398713751E+01
  7.7980693469574462E+01
  6.0281692145583314E+01
  6.6727395407226837E+01
  7.9761759964140140E+01
  5.7966526365797861E+01
  9.2035787472640862E+01
  5.7971068227058034E+01
  6.8344085995158935E+01
  9.9392474267500802E+01
  5.0612348543586137E+01
  9.9393226068789446E+01
  5.0608993913281012E+01
  7.0124360088363929E+01
  5.4671515960615878E+01
  5.4469733875997804E+01
  7.6932460805382988E+01
  7.7079650758763833E+01
  7.4166258997147210E+01
  7.9819615158295733E+01
  8.0006214285805683E+01
  7.1960378689520581E+01
  6.6893606377613509E+01
  7.8978641062795219E+01
  7.1074681417363792E+01
  7.1042893327497012E+01
  7.8952184308018573E+01
  5.9328622006532648E+01
  6.4883638127674544E+01
  8.2229944269142550E+01
  7.5194743828200401E+01
  7.5221311022691168E+01
  7.1956593368100670E+01
  7.7712892505976754E+01
  7.3033872379779226E+01
  7.2840591272848286E+01
  7.8333024293442421E+01
  7.2670518124650997E+01
  6.6170733240745989E+01
  6.5960220600831732E+01
  7.1755715712006648E+01
  7.3277589857933137E+01
  8.3463520217784534E+01
  7.3163014289310382E+01
  7.1111783265974893E+01
  7.8808028867637333E+01
  7.8792932926432343E+01
  7.1176781696933887E+01
  7.3449003620920976E+01
  6.8503722451323227E+01
  6.8078303945684098E+01
  7.1688804190673309E+01
  7.6213629538876788E+01
  7.7702392878225254E+01
  8.2159649412394103E+01
  8.1827374758686886E+01
  6.8178280986125486E+01
  6.7842862584844028E+01
  9.8360494676432253E+01
  5.1642130422218415E+01
  9.8360445543937587E+01
  7.7099569083026083E+01
  9.0274009837328265E+01
  5.9724448555443047E+01
  5.9730333943790811E+01
  9.0275108626999057E+01
  9.4987267447049021E+01
  5.5012852206642606E+01
  9.4986648412657985E+01
  5.5013380876693695E+01
  7.5321988456769489E+01
  7.4656892373137850E+01
  5.8466180638873197E+01
  9.1516034197074461E+01
  9.1513425822183962E+01
  5.8500112533151622E+01
  8.0147505802425698E+01
  7.9805128161152410E+01
  7.8885421101878379E+01
  7.9087875316335925E+01
  8.7735901068149062E+01
  6.2273132578303880E+01
  6.2320439718186869E+01
  8.7709381351218596E+01
  8.1171992123366906E+01
  6.8830951737139955E+01
  8.1198235091060525E+01
  7.1956864924776426E+01
  7.5172990003302189E+01
  7.2383204816118578E+01
  7.2557262190695511E+01
  6.7972143389211539E+01
  6.7666046283143487E+01
  7.6124248293385179E+01
  7.3877560285236413E+01
  7.3880646211147834E+01
  7.6100806373914111E+01
  6.4689000543116165E+01
  9.5599246106846891E+01
  5.4310191941138321E+01
  9.5685271348892982E+01
  5.4396637621525166E+01
  9.5752914507290910E+01
  9.5725693124044042E+01
  5.4411523596840695E+01
  5.4328625707256116E+01
  7.6314210813323967E+01
  7.1309227201900569E+01
  7.5574440438006263E+01
  9.0247386249598094E+01
  5.9769384447432536E+01
  5.9772225861018313E+01
  9.0215520745424953E+01
  7.4236386803786417E+01
  7.4969898444103734E+01
  9.7388954609138267E+01
  5.2606143441905822E+01
  5.2619061687060196E+01
  9.7384630750077264E+01
  7.0712636437332051E+01
  7.0717074213028809E+01
  7.9314177907373349E+01
  6.9344712487523466E+01
  7.3550152280894523E+01
  7.6427478437711926E+01
  7.3562537129734380E+01
  7.8339616065252599E+01
  7.0022428316509362E+01
  5.3356712824501216E+01
  9.6652451077861727E+01
  7.4971565442705582E+01
  5.3138076784078038E+01
  9.6868819624232714E+01
  5.3162000066817242E+01
  9.6856799054665245E+01
  7.8483932063707698E+01
  7.5338208605966869E+01
  5.8766161868023076E+01
  9.1192569554074055E+01
  9.1196799337676282E+01
  5.8839675148999980E+01
  7.1833157285684464E+01
  6.9514119476702987E+01
  7.2717157065355536E+01
  6.3679916200378749E+01
  6.9091169456068201E+01
  6.5767822533192202E+01
  7.6365143387236699E+01
  5.7706719466617130E+01
  9.2236822689824962E+01
  9.2263453894588196E+01
  5.7742147879438178E+01
  5.3327547779185743E+01
  7.2569110709048203E+01
  7.2617638088433480E+01
  8.2695509438602258E+01
  8.2679790672722334E+01
  6.7316568684346819E+01
  9.5418720914931569E+01
  5.4583845879456526E+01
  5.4572192967480014E+01
  9.5409711681305453E+01
  7.8771702421821061E+01
  9.7059037835696657E+01
  5.2944785312868106E+01
  5.2584894650373052E+01
  9.7418469814481412E+01
  9.7059201802418940E+01
  9.7418593662315885E+01
  7.4723087804387447E+01
  7.4689306950634773E+01
  7.9525066810628189E+01
  7.9517759525427039E+01
  7.0495030872249060E+01
  8.4709652637485632E+01
  6.5357011420522383E+01
  8.4794133354233978E+01
  7.2271712399550381E+01
  7.0359883880419247E+01
  7.0126036286518556E+01
  7.8316657829211863E+01
  8.1643413961875837E+01
  6.8346859906143578E+01
  5.4275803335881868E+01
  7.2673142505121376E+01
  8.0939988654035872E+01
  8.0929308408015672E+01
  6.9073467739627631E+01
  9.3933611527224997E+01
  5.6070939863032606E+01
  9.4408545215883336E+01
  5.5595809134239360E+01
  5.5574783977948456E+01
  5.6052509249746578E+01
  9.3929220066086799E+01
  9.4404754211101206E+01
  7.5096644565149631E+01
  8.0207057337318048E+01
  7.5991669559103329E+01
  7.5824934887874250E+01
  7.0500679632505395E+01
  6.5088069732699822E+01
  7.0727295607376448E+01
  7.9303440689197942E+01
  8.2164677573812497E+01
  8.2193798535866691E+01
  6.7824263869557399E+01
  6.3719085888522336E+01
  7.6149799740015524E+01
  7.5123724692381103E+01
  6.9404299919636486E+01
  8.0579611923692738E+01
  7.3763528877358013E+01
  7.5623302228300048E+01
  7.2168026795681072E+01
  7.5211490161337551E+01
  9.7016300895000597E+01
  5.2992189983535887E+01
  9.7014869275952805E+01
  5.2954182612088751E+01
  7.0098913675993302E+01
  6.9958648537383027E+01
  6.7277580809535621E+01
  6.7298252791495969E+01
  7.4900128134139450E+01
  5.8200407814577154E+01
  9.1820613146829288E+01
  7.9347848863291219E+01
  7.0699574207587617E+01
  7.6095379034824902E+01
  6.8623468615252577E+01
  8.1379666139895633E+01
  6.8819684679315657E+01
  6.8633260102184238E+01
  5.8465996443032388E+01
  9.1521801372344285E+01
  9.1514898766383425E+01
  5.8499653846873414E+01
  8.9955357026353198E+01
  6.0042908331548070E+01
  6.0019267374762947E+01
  8.9955998568527704E+01
  5.5263341951027293E+01
  9.4680405395597532E+01
  9.4693525281872823E+01
  5.5333670431191123E+01
  7.2172467629822719E+01
  7.2871962670630467E+01
  9.7018787682759736E+01
  5.2988505085695927E+01
  9.7017891186333742E+01
  5.2979397608746503E+01
  5.1299456450435741E+01
  9.8701158625695342E+01
  9.8694893194575229E+01
  5.1327612089309994E+01
  5.1305399261407530E+01
  9.8734260084380196E+01
  5.1305711904104534E+01
  9.8702751666814024E+01
  7.0367654715068312E+01
  7.0397539062770264E+01
  7.9641856899996682E+01
  8.6155054717739205E+01
  6.3837899191854468E+01
  8.6868051847916917E+01
  6.3115022864754053E+01
  6.3860226484587670E+01
  6.3145812677753042E+01
  8.6104316158717481E+01
  8.6807691383405611E+01
  8.0304638625192396E+01
  6.9706629050635058E+01
  5.7989666412749173E+01
  9.2016784559573722E+01
  9.1990996902591505E+01
  5.8001298642008990E+01
  9.1126656061666012E+01
  5.8873009787447067E+01
  5.8949399680685218E+01
  9.1124565268304593E+01
  5.9209548273063191E+01
  5.9218327860789273E+01
  8.1686472001518453E+01
  7.8091552790454784E+01
  7.3760075500039221E+01
  9.3891593638172267E+01
  9.3892477178661082E+01
  5.6115797810127866E+01
  7.4762895587534786E+01
  7.5183960396913761E+01
  7.6125991807988143E+01
  7.6125199294876865E+01
  7.3846555989006319E+01
  7.3137536473484886E+01
  7.5988758128881187E+01
  7.6082828556568316E+01
  7.5824577852283284E+01
  7.4172154549806294E+01
  7.8115225603862314E+01
  5.0312183495404511E+01
  9.9688169906673394E+01
  9.9686189487203166E+01
  5.0312442880186097E+01
  7.5099246818395358E+01
  9.1514282124748235E+01
  5.8313450055896610E+01
  7.2236602343141868E+01
  7.2623664524024576E+01
  5.3844902983285039E+01
  9.6102042124071104E+01
  9.6101833321618372E+01
  5.3902398878961250E+01
  7.5255222884975609E+01
  7.5215457259781232E+01
  6.7887168111161898E+01
  5.2383524578712638E+01
  9.7617535403967977E+01
  9.7722079718657241E+01
  5.2287585669010596E+01
  5.2392932216759533E+01
  9.7682484220146847E+01
  5.2278849144704189E+01
  9.7732481223270270E+01
  7.5499062714009142E+01
  7.8468200267620432E+01
  7.5333972432753910E+01
  7.4650292801953043E+01
  7.4749064471645511E+01
  7.5076706849305054E+01
  6.1510167517110702E+01
  8.8469386794931424E+01
  8.8530648385986595E+01
  6.1551536179968672E+01
  7.8746814997699957E+01
  7.8749219191725729E+01
  7.1268273026766593E+01
  5.3745720780164717E+01
  9.6235378090113272E+01
  9.6241597547549489E+01
  5.3772740875950831E+01
  8.7148620299891846E+01
  6.2861386653731920E+01
  8.7177514907686486E+01
  8.8468988446644119E+01
  6.1546516307546739E+01
  8.8471290996507463E+01
  7.4368980776029645E+01
  7.9267509983918188E+01
  9.8198025999853925E+01
  5.1804935130419345E+01
  9.8198125539098811E+01
  7.2860765520011881E+01
  8.6181808785291182E+01
  6.3855163862546156E+01
  6.3914158031879168E+01
  8.6137842929640030E+01
  9.0965499896147932E+01
  5.9034921515564363E+01
  5.9011671843775083E+01
  9.0961202556738243E+01
  8.1878332243467639E+01
  8.1904835881517087E+01
  6.8110228297164085E+01
  7.7284005782644641E+01
  7.1625666854869777E+01
  7.2255825734738124E+01
  7.6486858989474783E+01
  7.8971962627942702E+01
  8.1618631621719729E+01
  7.5233456517589673E+01
  7.1134748302216494E+01
  8.2159216321913149E+01
  7.5850236410047060E+01
  7.5659269793213596E+01
  6.2054106787361619E+01
  7.5484864068774868E+01
  8.3301289616845793E+01
  6.6737880125068770E+01
  8.3269824847247023E+01
  7.9120347654330160E+01
  7.0873485914098296E+01
  7.1131574381933220E+01
  7.8870081363430941E+01
  8.7592203552360402E+01
  8.7590347463691941E+01
  6.2416083671609726E+01
  7.9607677101518590E+01
  7.5732190720584569E+01
  7.5100608762235026E+01
  8.4967872030330298E+01
  6.5054284434232358E+01
  6.5080056052698552E+01
  8.4959073553747430E+01
  7.5078529716417748E+01
  7.3617675061610512E+01
  8.3904810850331117E+01
  7.6541954232018384E+01
  7.3661292078748431E+01
  6.9799834921162173E+01
  6.2228008419190921E+01
  7.4926340747403188E+01
  7.4088954465783161E+01
  7.4480066798154084E+01
  7.6954754871838489E+01
  7.4590749070607529E+01
  8.0550137931646830E+01
  6.9449145331924640E+01
  8.0679343088813582E+01
  8.7491929978666747E+01
  6.2528018977326902E+01
  8.3524395712325415E+01
  6.6461079617168977E+01
  8.3538744444512034E+01
  7.9493094617266266E+01
  6.9201135437602716E+01
  7.7964054006945474E+01
  9.0723472643771345E+01
  5.9272331847476330E+01
  5.9284210551216795E+01
  9.0707136036265396E+01
  7.4560622612649297E+01
  8.1380390045334337E+01
  8.1485779955211783E+01
  7.3149714396881151E+01
  7.3120224218842111E+01
  5.7461017342475316E+01
  9.2538794756909468E+01
  9.2523333386234185E+01
  8.2102952099001314E+01
  6.3284448395688116E+01
  5.7457605072823107E+01
  8.3437535244193683E+01
  7.3603160530064613E+01
  7.3386559799192241E+01
  7.7758769784100949E+01
  7.7522869585504537E+01
  7.8893930519065080E+01
  7.2735842661268677E+01
  8.1475741352598362E+01
  6.8528170419570372E+01
  8.1490633678816678E+01