# vtk DataFile Version 3.0
VTK datafile generated by Trushant
ASCII
DATASET UNSTRUCTURED_GRID
POINTS 13471 double
  0.0000000000000000E+00	  0.0000000000000000E+00	  0.0000000000000000E+00
  0.0000000000000000E+00	  1.0000000000000000E+00	  0.0000000000000000E+00
  1.0000000000000000E+00	  1.0000000000000000E+00	  0.0000000000000000E+00
  1.0000000000000000E+00	  0.0000000000000000E+00	  0.0000000000000000E+00
  0.0000000000000000E+00	  9.9999999999811039E-03	  0.0000000000000000E+00
  0.0000000000000000E+00	  1.9999999999962371E-02	  0.0000000000000000E+00
  0.0000000000000000E+00	  2.9999999999943069E-02	  0.0000000000000000E+00
  0.0000000000000000E+00	  3.9999999999921862E-02	  0.0000000000000000E+00
  0.0000000000000000E+00	  4.9999999999899659E-02	  0.0000000000000000E+00
  0.0000000000000000E+00	  5.9999999999878373E-02	  0.0000000000000000E+00
  0.0000000000000000E+00	  6.9999999999860507E-02	  0.0000000000000000E+00
  0.0000000000000000E+00	  7.9999999999845181E-02	  0.0000000000000000E+00
  0.0000000000000000E+00	  8.9999999999829897E-02	  0.0000000000000000E+00
  0.0000000000000000E+00	  9.9999999999814626E-02	  0.0000000000000000E+00
  0.0000000000000000E+00	  1.0999999999979940E-01	  0.0000000000000000E+00
  0.0000000000000000E+00	  1.1999999999978320E-01	  0.0000000000000000E+00
  0.0000000000000000E+00	  1.2999999999976089E-01	  0.0000000000000000E+00
  0.0000000000000000E+00	  1.3999999999973281E-01	  0.0000000000000000E+00
  0.0000000000000000E+00	  1.4999999999970359E-01	  0.0000000000000000E+00
  0.0000000000000000E+00	  1.5999999999967451E-01	  0.0000000000000000E+00
  0.0000000000000000E+00	  1.6999999999964530E-01	  0.0000000000000000E+00
  0.0000000000000000E+00	  1.7999999999961619E-01	  0.0000000000000000E+00
  0.0000000000000000E+00	  1.8999999999958700E-01	  0.0000000000000000E+00
  0.0000000000000000E+00	  1.9999999999955789E-01	  0.0000000000000000E+00
  0.0000000000000000E+00	  2.0999999999952881E-01	  0.0000000000000000E+00
  0.0000000000000000E+00	  2.1999999999949960E-01	  0.0000000000000000E+00
  0.0000000000000000E+00	  2.2999999999947041E-01	  0.0000000000000000E+00
  0.0000000000000000E+00	  2.3999999999944130E-01	  0.0000000000000000E+00
  0.0000000000000000E+00	  2.4999999999941211E-01	  0.0000000000000000E+00
  0.0000000000000000E+00	  2.5999999999938300E-01	  0.0000000000000000E+00
  0.0000000000000000E+00	  2.6999999999935381E-01	  0.0000000000000000E+00
  0.0000000000000000E+00	  2.7999999999932468E-01	  0.0000000000000000E+00
  0.0000000000000000E+00	  2.8999999999929549E-01	  0.0000000000000000E+00
  0.0000000000000000E+00	  2.9999999999926641E-01	  0.0000000000000000E+00
  0.0000000000000000E+00	  3.0999999999923722E-01	  0.0000000000000000E+00
  0.0000000000000000E+00	  3.1999999999920808E-01	  0.0000000000000000E+00
  0.0000000000000000E+00	  3.2999999999917901E-01	  0.0000000000000000E+00
  0.0000000000000000E+00	  3.3999999999914982E-01	  0.0000000000000000E+00
  0.0000000000000000E+00	  3.4999999999912068E-01	  0.0000000000000000E+00
  0.0000000000000000E+00	  3.5999999999909149E-01	  0.0000000000000000E+00
  0.0000000000000000E+00	  3.6999999999906241E-01	  0.0000000000000000E+00
  0.0000000000000000E+00	  3.7999999999903322E-01	  0.0000000000000000E+00
  0.0000000000000000E+00	  3.8999999999900409E-01	  0.0000000000000000E+00
  0.0000000000000000E+00	  3.9999999999897490E-01	  0.0000000000000000E+00
  0.0000000000000000E+00	  4.0999999999894582E-01	  0.0000000000000000E+00
  0.0000000000000000E+00	  4.1999999999891668E-01	  0.0000000000000000E+00
  0.0000000000000000E+00	  4.2999999999888749E-01	  0.0000000000000000E+00
  0.0000000000000000E+00	  4.3999999999885842E-01	  0.0000000000000000E+00
  0.0000000000000000E+00	  4.4999999999882923E-01	  0.0000000000000000E+00
  0.0000000000000000E+00	  4.5999999999879998E-01	  0.0000000000000000E+00
  0.0000000000000000E+00	  4.6999999999877079E-01	  0.0000000000000000E+00
  0.0000000000000000E+00	  4.7999999999874182E-01	  0.0000000000000000E+00
  0.0000000000000000E+00	  4.8999999999871258E-01	  0.0000000000000000E+00
  0.0000000000000000E+00	  4.9999999999869432E-01	  0.0000000000000000E+00
  0.0000000000000000E+00	  5.0999999999870982E-01	  0.0000000000000000E+00
  0.0000000000000000E+00	  5.1999999999873614E-01	  0.0000000000000000E+00
  0.0000000000000000E+00	  5.2999999999876257E-01	  0.0000000000000000E+00
  0.0000000000000000E+00	  5.3999999999878878E-01	  0.0000000000000000E+00
  0.0000000000000000E+00	  5.4999999999881521E-01	  0.0000000000000000E+00
  0.0000000000000000E+00	  5.5999999999884154E-01	  0.0000000000000000E+00
  0.0000000000000000E+00	  5.6999999999886786E-01	  0.0000000000000000E+00
  0.0000000000000000E+00	  5.7999999999889418E-01	  0.0000000000000000E+00
  0.0000000000000000E+00	  5.8999999999892050E-01	  0.0000000000000000E+00
  0.0000000000000000E+00	  5.9999999999894682E-01	  0.0000000000000000E+00
  0.0000000000000000E+00	  6.0999999999897314E-01	  0.0000000000000000E+00
  0.0000000000000000E+00	  6.1999999999899946E-01	  0.0000000000000000E+00
  0.0000000000000000E+00	  6.2999999999902578E-01	  0.0000000000000000E+00
  0.0000000000000000E+00	  6.3999999999905210E-01	  0.0000000000000000E+00
  0.0000000000000000E+00	  6.4999999999907843E-01	  0.0000000000000000E+00
  0.0000000000000000E+00	  6.5999999999910486E-01	  0.0000000000000000E+00
  0.0000000000000000E+00	  6.6999999999913118E-01	  0.0000000000000000E+00
  0.0000000000000000E+00	  6.7999999999915739E-01	  0.0000000000000000E+00
  0.0000000000000000E+00	  6.8999999999918371E-01	  0.0000000000000000E+00
  0.0000000000000000E+00	  6.9999999999921014E-01	  0.0000000000000000E+00
  0.0000000000000000E+00	  7.0999999999923646E-01	  0.0000000000000000E+00
  0.0000000000000000E+00	  7.1999999999926279E-01	  0.0000000000000000E+00
  0.0000000000000000E+00	  7.2999999999928922E-01	  0.0000000000000000E+00
  0.0000000000000000E+00	  7.3999999999931543E-01	  0.0000000000000000E+00
  0.0000000000000000E+00	  7.4999999999934175E-01	  0.0000000000000000E+00
  0.0000000000000000E+00	  7.5999999999936807E-01	  0.0000000000000000E+00
  0.0000000000000000E+00	  7.6999999999939450E-01	  0.0000000000000000E+00
  0.0000000000000000E+00	  7.7999999999942071E-01	  0.0000000000000000E+00
  0.0000000000000000E+00	  7.8999999999944703E-01	  0.0000000000000000E+00
  0.0000000000000000E+00	  7.9999999999947335E-01	  0.0000000000000000E+00
  0.0000000000000000E+00	  8.0999999999949979E-01	  0.0000000000000000E+00
  0.0000000000000000E+00	  8.1999999999952611E-01	  0.0000000000000000E+00
  0.0000000000000000E+00	  8.2999999999955232E-01	  0.0000000000000000E+00
  0.0000000000000000E+00	  8.3999999999957875E-01	  0.0000000000000000E+00
  0.0000000000000000E+00	  8.4999999999960507E-01	  0.0000000000000000E+00
  0.0000000000000000E+00	  8.5999999999963139E-01	  0.0000000000000000E+00
  0.0000000000000000E+00	  8.6999999999965771E-01	  0.0000000000000000E+00
  0.0000000000000000E+00	  8.7999999999968415E-01	  0.0000000000000000E+00
  0.0000000000000000E+00	  8.8999999999971036E-01	  0.0000000000000000E+00
  0.0000000000000000E+00	  8.9999999999973668E-01	  0.0000000000000000E+00
  0.0000000000000000E+00	  9.0999999999976311E-01	  0.0000000000000000E+00
  0.0000000000000000E+00	  9.1999999999978943E-01	  0.0000000000000000E+00
  0.0000000000000000E+00	  9.2999999999981564E-01	  0.0000000000000000E+00
  0.0000000000000000E+00	  9.3999999999984196E-01	  0.0000000000000000E+00
  0.0000000000000000E+00	  9.4999999999986839E-01	  0.0000000000000000E+00
  0.0000000000000000E+00	  9.5999999999989472E-01	  0.0000000000000000E+00
  0.0000000000000000E+00	  9.6999999999992104E-01	  0.0000000000000000E+00
  0.0000000000000000E+00	  9.7999999999994747E-01	  0.0000000000000000E+00
  0.0000000000000000E+00	  9.8999999999997368E-01	  0.0000000000000000E+00
  9.9999999999811039E-03	  1.0000000000000000E+00	  0.0000000000000000E+00
  1.9999999999962371E-02	  1.0000000000000000E+00	  0.0000000000000000E+00
  2.9999999999943069E-02	  1.0000000000000000E+00	  0.0000000000000000E+00
  3.9999999999921862E-02	  1.0000000000000000E+00	  0.0000000000000000E+00
  4.9999999999899659E-02	  1.0000000000000000E+00	  0.0000000000000000E+00
  5.9999999999878373E-02	  1.0000000000000000E+00	  0.0000000000000000E+00
  6.9999999999860507E-02	  1.0000000000000000E+00	  0.0000000000000000E+00
  7.9999999999845181E-02	  1.0000000000000000E+00	  0.0000000000000000E+00
  8.9999999999829897E-02	  1.0000000000000000E+00	  0.0000000000000000E+00
  9.9999999999814626E-02	  1.0000000000000000E+00	  0.0000000000000000E+00
  1.0999999999979940E-01	  1.0000000000000000E+00	  0.0000000000000000E+00
  1.1999999999978320E-01	  1.0000000000000000E+00	  0.0000000000000000E+00
  1.2999999999976089E-01	  1.0000000000000000E+00	  0.0000000000000000E+00
  1.3999999999973281E-01	  1.0000000000000000E+00	  0.0000000000000000E+00
  1.4999999999970359E-01	  1.0000000000000000E+00	  0.0000000000000000E+00
  1.5999999999967451E-01	  1.0000000000000000E+00	  0.0000000000000000E+00
  1.6999999999964530E-01	  1.0000000000000000E+00	  0.0000000000000000E+00
  1.7999999999961619E-01	  1.0000000000000000E+00	  0.0000000000000000E+00
  1.8999999999958700E-01	  1.0000000000000000E+00	  0.0000000000000000E+00
  1.9999999999955789E-01	  1.0000000000000000E+00	  0.0000000000000000E+00
  2.0999999999952881E-01	  1.0000000000000000E+00	  0.0000000000000000E+00
  2.1999999999949960E-01	  1.0000000000000000E+00	  0.0000000000000000E+00
  2.2999999999947041E-01	  1.0000000000000000E+00	  0.0000000000000000E+00
  2.3999999999944130E-01	  1.0000000000000000E+00	  0.0000000000000000E+00
  2.4999999999941211E-01	  1.0000000000000000E+00	  0.0000000000000000E+00
  2.5999999999938300E-01	  1.0000000000000000E+00	  0.0000000000000000E+00
  2.6999999999935381E-01	  1.0000000000000000E+00	  0.0000000000000000E+00
  2.7999999999932468E-01	  1.0000000000000000E+00	  0.0000000000000000E+00
[...]
CELL_DATA 26540
SCALARS Temperature double
LOOKUP_TABLE default
  9.1602733764724988E+01
  6.7633800705567424E+01
  9.0005386255844414E+01
  5.7789617930297950E+01
  5.9985494487679254E+01
  7.0088509665740190E+01
  9.8707132048461887E+01
  5.1292225842309108E+01
  7.9885875213838275E+01
  7.5005717210421963E+01
  9.5140132364048142E+01
  9.5313482599940556E+01
  6.4667457401547566E+01
  6.4856306351545584E+01
  5.4880510265381673E+01
  5.4705401561861940E+01
  8.3036035730978000E+01
  8.2584305727370889E+01
  6.4774997414263296E+01
  9.0127961480539042E+01
  6.1670416838152534E+01
  5.9867525419783234E+01
  9.9211395420749795E+01
  8.0380929887405102E+01
  8.2907648756826120E+01
  6.6207369884811527E+01
  9.1787869841884259E+01
  6.9755076401092538E+01
  6.0250887773055027E+01
  8.6121759307478001E+01
  6.2342228612850668E+01
  8.2313007186913794E+01
  9.5395816256159193E+01
  7.3920584741322699E+01
  7.6080911996827027E+01
  5.4589584659553722E+01
  6.1440339309442699E+01
  8.8536220846874983E+01
  5.4666162564252154E+01
  9.6324035976038644E+01
  5.0716944958388815E+01
  6.1201980403280629E+01
  8.8775294010657802E+01
  5.4497576234546329E+01
  7.0959294417463411E+01
  7.6768600514640696E+01
  9.1969640748665185E+01
  5.5188180188774055E+01
  9.8637601131314881E+01
  9.4811142546369126E+01
  5.1358743206041687E+01
  9.5670733326032334E+01
  6.4565781980605493E+01
  8.5358026143176176E+01
  5.4343907070529021E+01
  9.5678102090017433E+01
  6.0491250490926092E+01
  8.9502967379400573E+01
  5.4345929336152615E+01
  7.4605659132318891E+01
  7.4720515405955013E+01
  8.2722154017753269E+01
  9.6658186191436357E+01
  9.6397373635589076E+01
  5.6562886053296204E+01
  5.7063525594994545E+01
  9.3504369917252006E+01
  9.2989212369948703E+01
  5.3312872254687214E+01
  5.3578400107431555E+01
  9.1898735885317109E+01
  9.8030408850788518E+01
  9.8162811645301986E+01
  8.2181299915703889E+01
  8.2420850940356672E+01
  8.0138550538282487E+01
  8.2957254888369775E+01
  6.0213822474054069E+01
  8.9775346010887972E+01
  5.5983475195113492E+01
  7.9342266968759844E+01
  9.4736752226726750E+01
  6.6930549157485544E+01
  7.8503539735197521E+01
  7.1483462476393953E+01
  5.7979060809511836E+01
  8.1256810581288079E+01
  8.2119386423609356E+01
  6.1329930377199410E+01
  6.7824058078596622E+01
  7.9132922218145367E+01
  5.6608732852970114E+01
  9.3398717184380601E+01
  5.4107531379879454E+01
  7.8455970723093372E+01
  5.3085503910745288E+01
  5.2548953612021208E+01
  9.8934084948592144E+01
  9.9133252036328841E+01
  9.6920572124951775E+01
  9.7455436334217225E+01
  5.1071988683313251E+01
  5.0871151644712448E+01
  7.3355286963180120E+01
  7.3689570995158576E+01
  9.7049486951313000E+01
  9.7114461296027741E+01
  5.3450156108781350E+01
  5.3312312852579566E+01
  9.6575611676246467E+01
  9.6713922735074689E+01
  5.2958863011680549E+01
  5.2893393961863396E+01
  9.1344942566439130E+01
  7.1973235518977233E+01
  9.5868105330358617E+01
  6.0197201627302142E+01
  8.9819428395932746E+01
  5.4154930337283794E+01
  6.2711826493734470E+01
  9.7501028903015836E+01
  5.3425151539068530E+01
  9.6593810935578389E+01
  5.2508983189760116E+01
  7.1691423444659506E+01
  9.8948176896356287E+01
  5.6335951788987920E+01
  5.1059944285121162E+01
  9.3656404748429154E+01
  6.4327538969601903E+01
  8.6912966320208724E+01
  7.8279060510402985E+01
  6.6868481340006838E+01
  8.6737032079902150E+01
  9.7540823202299222E+01
  6.4077816752763411E+01
  8.6000007383265086E+01
  5.2467947152252080E+01
  6.3895097177056527E+01
  9.4156385263483486E+01
  9.4264137813343552E+01
  5.9814781691426681E+01
  9.9233515087742944E+01
  5.0764882857999808E+01
  5.5762296789966946E+01
  8.9799500809134003E+01
  7.2041456833050077E+01
  8.5869904180280855E+01
  8.6076133765846748E+01
  9.0340960717873941E+01
  8.1227372130213624E+01
  9.2281391715294333E+01
  9.5205318660198074E+01
  5.4799064641804428E+01
  5.3745525913353006E+01
  8.0632767049162993E+01
  6.9379084572248388E+01
  5.8510272234783024E+01
  7.6072051516940761E+01
  7.5710426383495459E+01
  9.3093147124373445E+01
  9.5285476322245458E+01
  6.2685928757056807E+01
  8.7325848088544006E+01
  5.4741009718166282E+01
  9.2346197918635895E+01
  9.4348603241672166E+01
  5.7653811228354186E+01
  5.5692580274621733E+01
  9.3257539540875626E+01
  5.7944365113528988E+01
  9.2043176291917547E+01
  5.6763974259840658E+01
  8.4772331435018728E+01
  6.7581504967071453E+01
  7.1666518609461662E+01
  8.1912834353906121E+01
  6.3144188805572334E+01
  9.4196657502393535E+01
  5.7222972966546948E+01
  9.2793308702400154E+01
  5.5820744926521741E+01
  7.3694375872451317E+01
  9.5809335707152883E+01
  6.4387781132228014E+01
  8.5548106158059895E+01
  5.4204392456390522E+01
  9.2845639603827436E+01
  5.3423900475540606E+01
  6.7133281952310355E+01
  8.0217494335185279E+01
  6.9812015623546685E+01
  5.8562820270143504E+01
  5.2556689076482968E+01
  9.7799193390337024E+01
  9.7464188860906802E+01
  5.2206998070445266E+01
  6.7349576567199051E+01
  6.2437111514157145E+01
  9.7708777946280989E+01
  5.5187724826923102E+01
  9.4813070382911079E+01
  5.2313457486614567E+01
  7.5959837016352026E+01
  8.8926280082951138E+01
  8.6601154713246899E+01
  8.6331546478581544E+01
  6.0165598147134745E+01
  6.0131908566349018E+01
  7.5016038630206154E+01
  7.4917301131130202E+01
  5.7923026149302203E+01
  8.9014868398585790E+01
  9.7162044703469618E+01
  5.1437050945231206E+01
  5.2841040228819850E+01
  9.8582820102499667E+01
  7.1412349235219295E+01
  5.7781894740555991E+01
  6.3964559553426184E+01
  9.6553697715235856E+01
  5.0644721693170176E+01
  9.1342047673501128E+01
  9.9653995619782634E+01
  5.2390641829930644E+01
  5.0346392060945625E+01
  9.7602358688534551E+01
  8.1775971293516776E+01
  7.5042969431264311E+01
  9.7169865498808718E+01
  5.8281139245605971E+01
  9.1562119182160231E+01
  5.2840041562495010E+01
  8.6787684695746790E+01
  9.3215445729400429E+01
  5.8187036522798486E+01
  5.6806169810595740E+01
  7.7707207787465236E+01
  9.0492472800327235E+01
  5.3036392943797118E+01
  9.9548154123167919E+01
  5.0452393781041806E+01
  9.6955646824169051E+01
  7.8572764729165073E+01
  9.8823739027808372E+01
  5.6875003320672754E+01
  9.3113995352170605E+01
  5.1179573823480162E+01
  9.5453913537034524E+01
  5.9535261198804051E+01
  9.0437233845864640E+01
  5.4566735020623327E+01
  8.2897516887369832E+01
  6.5858854346453910E+01
  6.7793958183962189E+01
  7.0106091327030555E+01
  7.8778505648871032E+01
  7.1210883211084152E+01
  5.8139593726035898E+01
  7.8002749015400838E+01
  7.8191817202375830E+01
  5.0350839712492849E+01
  9.9858255929392371E+01
  9.9649736932244110E+01
  5.0140617461452614E+01
  9.3216712072530171E+01
  8.4986792219481273E+01
  9.5704894480131401E+01
  7.0813877829890700E+01
  7.9146958879525798E+01
  5.4287662188320866E+01
  7.7690636278372978E+01
  7.0795399977661049E+01
  8.9873172362186210E+01
  6.3136835195491940E+01
  8.6842628815521309E+01
  5.5590192493180957E+01
  8.1552806766168104E+01
  7.5046840107113454E+01
  8.3375571929552351E+01
  8.4469946395989112E+01
  9.9134921007024417E+01
  5.2026498979931496E+01
  5.0866365000296859E+01
  9.7965432572471371E+01
  9.8676984534581933E+01
  5.2948404689066813E+01
  9.7055215546365545E+01
  5.1340593035891516E+01
  6.2305838218447313E+01
  9.0269275088747989E+01
  9.2587386988930419E+01
  8.7974544612836894E+01
  6.2984330286954808E+01
  6.2002042494343023E+01
  9.5962547744662444E+01
  9.6198086023660466E+01
  5.2592144014332391E+01
  5.2519651648063210E+01
  5.4041133352739003E+01
  5.3805389269898299E+01
  7.6680362726851143E+01
  9.2328868513051788E+01
  7.9581373337538992E+01
  7.2585346334054435E+01
  9.8037929567635359E+01
  5.8757997581328880E+01
  9.1224835627833855E+01
  5.1965841862925188E+01
  5.9606892726246777E+01
  6.3734061366147358E+01
  6.3444683921542136E+01
  6.9784775239968837E+01
  6.8278047208982500E+01
  6.8530681054596556E+01
  8.1679360828969550E+01
  8.1414895322848736E+01
  5.8180108937509587E+01
  5.8100575700469918E+01
  7.6688311142494356E+01
  8.7987468183795229E+01
  6.1990574463978504E+01
  5.7344192609476977E+01
  9.9274553039890407E+01
  5.0076357165211050E+01
  9.9923422608729453E+01
  5.0719474797929983E+01
  9.9937997430789764E+01
  5.0593763917113989E+01
  9.9402721718499748E+01
  5.0061926049355463E+01
  8.1417073620150575E+01
  8.2669227616398018E+01
  6.5778823557581589E+01
  7.2076141793940252E+01
  6.9047706980143573E+01
  6.8805468562864448E+01
  9.7898551699544512E+01
  6.4464806912460318E+01
  8.5509152636122039E+01
  5.2097513072762744E+01
  6.5243801132743869E+01
  9.6412390172844795E+01
  5.8652414728368164E+01
  9.1379286147943674E+01
  5.3603781217851811E+01
  8.8322679397056845E+01
  5.7251389553572253E+01
  6.1657430794313633E+01
  8.5053315256817967E+01
  9.1847992367844071E+01
  9.1780684683712579E+01
  5.9615639489275424E+01
  5.9280060050692938E+01
  5.8257547932966908E+01
  5.8195100731083663E+01
  6.8567881001107608E+01
  9.9708301146232841E+01
  8.8809249179981990E+01
  9.2605299720101200E+01
  9.2034103460349925E+01
  5.0114285278050652E+01
  5.7970427544908318E+01
  9.0682816715960072E+01
  5.0566760763583922E+01
  9.9778900973212174E+01
  9.9434206508903983E+01
  5.0219670275824321E+01
  8.3132577334906401E+01
  9.7472362172490065E+01
  9.7528424027204608E+01
  6.8272790370268879E+01
  6.8113795017613924E+01
  7.2796490941227404E+01
  6.7035866086520883E+01
  6.6768509236753076E+01
  8.5536544064770638E+01
  8.8813372060945682E+01
  7.1005087779501565E+01
  9.8640744573502985E+01
  5.1358692101780797E+01
  7.8968430160258492E+01
  9.9709222695604240E+01
  8.7503615616609096E+01
  9.3101007409951862E+01
  8.0448148957376631E+01
  8.0677110361446609E+01
  8.1994511983028886E+01
  7.9841803301760876E+01
  8.1400010923906862E+01
  8.1683549416558336E+01
  6.3713463206646260E+01
  6.9952858568136975E+01
  8.8017158634863478E+01
  8.8284920673875931E+01
  8.6508776500428041E+01
  7.9313469396173417E+01
  9.1576263053656433E+01
  7.9588269463494129E+01
  9.4969862433480799E+01
  7.9012593901109867E+01
  7.1001831675355476E+01
  5.5008416829104895E+01
  7.0406195412268829E+01
  9.2639498277693320E+01
  9.2747088429855353E+01
  6.8471339581486504E+01
  7.1057298635926685E+01
  9.1413272774370398E+01
  8.5524866710813967E+01
  8.5270162978849157E+01
  6.2870088981223148E+01
  6.2499150722734939E+01
  9.8613515829779061E+01
  5.0877972334029309E+01
  5.1387780766059471E+01
  8.1410655094127875E+01
  9.4910883833530818E+01
  5.8444332786120818E+01
  9.1564085750554341E+01
  5.5102391290693532E+01
  5.4861574810343917E+01
  9.8755044121246343E+01
  9.5138902364774324E+01
  5.1240386998493435E+01
  7.5447980515585797E+01
  6.1725116592654338E+01
  9.6218036763030341E+01
  5.7670224635850808E+01
  9.2335125488291155E+01
  5.3801905780724901E+01
  9.3165905889447970E+01
  9.3033221982737516E+01
  8.6024040923155937E+01
  8.6033576648568115E+01
  9.4734921201215386E+01
  6.1308554159145295E+01
  8.8657866738137329E+01
  5.5291466522386195E+01
  8.3509482310988773E+01
  6.1698734195197190E+01
  6.6459067663625305E+01
  8.1280569894407336E+01
  7.5800640466003529E+01
  6.9098886531028043E+01
  6.9206571133148159E+01
  8.8882366328140961E+01
  8.8953965690582450E+01
  9.5574900948880796E+01
  7.3838852866455809E+01
  7.6158339997222541E+01
  5.4409216478921515E+01
  9.0521009689085432E+01
  9.8177215365530344E+01
  5.3952390872219148E+01
  9.8254056956007616E+01
  5.4012987963416265E+01
  5.1717388559893088E+01
  5.1770898677725668E+01
  9.5979709349493845E+01
  9.6036514262096290E+01
  7.0776567538309038E+01
  8.7889716008676459E+01
  7.6918818770609178E+01
  9.6291111010789365E+01
  5.9126558108569597E+01
  9.0882421519562641E+01
  5.3731146765123555E+01
  8.2041973954885037E+01
  8.0397222904596759E+01
  9.8963116269156686E+01
  5.2395170910056699E+01
  9.7596108742038467E+01
  5.1038110380439228E+01
  7.0315127705090134E+01
  7.9690461455954917E+01
  5.6647983866125699E+01
  8.9936550040054286E+01
  9.6434573015960666E+01
  7.6467543450688382E+01
  5.3559935997614765E+01
  8.1309838534714302E+01
  8.2601977277826052E+01
  9.6722958392094895E+01
  5.0732693741148211E+01
  5.9728260735523072E+01
  5.3023752574755015E+01
  9.9152436342141144E+01
  9.6954132928853099E+01
  5.0850550299814678E+01
  8.1508117535447568E+01
  7.2374459002247150E+01
  9.6965494201937702E+01
  5.8316278544008071E+01
  9.1688960619711523E+01
  5.3057514711351146E+01
  6.8710944269886554E+01
  9.2964977784027624E+01
  9.4002074433417363E+01
  9.5034040584405730E+01
  9.0191941872364069E+01
  6.5764735922370051E+01
  7.6921774560610359E+01
  9.8247667597827075E+01
  5.7576412046951795E+01
  9.2451043079128681E+01
  5.1754348895485144E+01
  9.8366650815352543E+01
  7.0185622993980232E+01
  7.8182018271242953E+01
  6.7004856127525301E+01
  8.2976374550908602E+01
  5.4159541913199526E+01
  9.7271848924421619E+01
  5.3704937158629392E+01
  9.6315770869766325E+01
  5.2738847044677357E+01
  6.7542186133213136E+01
  9.7596781498705823E+01
  5.1705370684406645E+01
  5.1500145669844606E+01
  9.7893662387333976E+01
  5.2405607231711130E+01
  5.2108458335783190E+01
  7.6019553440975827E+01
  7.6096294189977783E+01
  8.0461093297415275E+01
  6.9537643360271090E+01
  5.9327859219355133E+01
  8.8327086582218428E+01
  6.1043536497460991E+01
  6.1618528666621721E+01
  7.0900545939261548E+01
  8.8121614227618707E+01
  8.8302859978021672E+01
  6.9273957740292673E+01
  8.2018715649827755E+01
  5.5048649749660662E+01
  9.7869579733494135E+01
  7.8151052699458532E+01
  8.2466875091074655E+01
  6.7535651159653739E+01
  6.0081651608689157E+01
  9.5954077357247357E+01
  5.4579148026491531E+01
  9.6230554166091665E+01
  5.4177630340015391E+01
  9.5854805932317362E+01
  9.5452934523727365E+01
  5.4056498230029405E+01
  5.3778882955412371E+01
  6.8138169665829025E+01
  6.5634798936908467E+01
  8.8482967352671267E+01
  8.8298491719597934E+01
  9.0150025072488191E+01
  9.2509572826180730E+01
  6.9693035967551651E+01
  6.0010430329231347E+01
  8.3172062531248415E+01
  6.6794012153670764E+01
  5.7666983777448024E+01
  9.3130923455484378E+01
  6.2937346536002593E+01
  7.4242961219168393E+01
  6.7023984190911108E+01
  6.2339530497244198E+01
  7.8772898189844724E+01
  7.8451719084908049E+01
  8.1680581839055606E+01
  6.9571137014809921E+01
  9.7317575711368335E+01
  5.1316080011377792E+01
  5.2685416004148586E+01
  9.8703010308129393E+01
  8.4256770882676250E+01
  8.4294516973272195E+01
  8.9503150500107452E+01
  8.9288445762782345E+01
  7.6332060731789667E+01
  9.2520051835714895E+01
  5.3481437475547942E+01
  8.2335825274530947E+01
  6.4675184687981471E+01
  7.7421408873732503E+01
  8.1376822651203398E+01
  5.0192173416722923E+01
  9.9800995387383793E+01
  6.8632969271062208E+01
  9.7546680346094959E+01
  5.8145829599615460E+01
  9.1846226552999951E+01
  5.2465491213974644E+01
  9.4828501343772132E+01
  5.8778020059666403E+01
  9.1260463976433684E+01
  5.5184828684982712E+01
  9.7728239850953798E+01
  5.4818313919618191E+01
  9.5195257578581021E+01
  5.2301340927445885E+01
  8.5339301226875222E+01
  8.0334515568175348E+01
  9.7351841483186590E+01
  5.1378807629073776E+01
  5.2650782287247836E+01
  9.8631487855462723E+01
  9.8701159085396625E+01
  5.0041272391055656E+01
  5.1304360495453366E+01
  9.9956383575706582E+01
  5.1304766234510936E+01
  9.9958602625635265E+01
  5.0042742176202623E+01
  9.8703505520129838E+01
  6.9956047298649409E+01
  8.0022671828518696E+01
  5.6512119866497798E+01
  6.3818659034376033E+01
  9.9021691329862193E+01
  6.3108007168911165E+01
  9.9107431243274533E+01
  5.0976682119909121E+01
  5.0891431897014655E+01
  8.6130911751112095E+01
  8.6831990342235628E+01
  6.9687677668658779E+01
  5.0793266939540246E+01
  9.7676086737788964E+01
  5.7663544540152543E+01
  9.2309632185513806E+01
  5.2332661892124932E+01
  9.5178804060043944E+01
  5.7576154437665643E+01
  9.2363078373456517E+01
  5.4835832766662634E+01
  5.9105908802651470E+01
  9.0885867086333519E+01
  9.0679408474826459E+01
  8.9647299348436562E+01
  8.1154725730351629E+01
  9.4929990690229062E+01
  5.5074235092161764E+01
  5.3473690645293686E+01
  7.4700960530501035E+01
  6.1303510364545964E+01
  7.6544487962823808E+01
  7.3459486310657198E+01
  6.1849803622588801E+01
  7.1003650298513492E+01
  7.1690105086774892E+01
  7.1287755236005992E+01
  7.6066955716328536E+01
  6.0736054589896746E+01
  6.4955238111995186E+01
  5.0275760202315567E+01
  9.9853377560347027E+01
  5.0147721787779020E+01
  9.9724535596641559E+01
  7.2269443956991509E+01
  9.9428950740024860E+01
  5.8297138003722182E+01
  7.0329709642075358E+01
  7.0155783577043522E+01
  9.7554644954421931E+01
  5.3018682121131050E+01
  9.6985026916859070E+01
  5.2491194291911661E+01
  7.6362171054598221E+01
  7.6123732054357021E+01
  6.5982345769513941E+01
  9.7617354858757494E+01
  5.0067706864602656E+01
  5.2276887978192015E+01
  9.9932831783023360E+01
  5.2392030039191532E+01
  9.9932013504936549E+01
  5.0066633676631966E+01
  9.7733527574876291E+01
  7.5856811253778844E+01
  6.9145968444883451E+01
  7.4536509129647825E+01
  7.6015425448889985E+01
  7.5713671741872147E+01
  7.2513741626862767E+01
  9.7891310444971651E+01
  6.1368831816816183E+01
  8.8693831530916199E+01
  5.2111861725413902E+01
  7.9543812452704699E+01
  7.0444374519762533E+01
  5.9488713447603736E+01
  9.8784937650158724E+01
  5.3565585175246859E+01
  9.6441788098297849E+01
  5.1221518137007195E+01
  8.9194647277988139E+01
  5.7605541564136232E+01
  6.0789760181860657E+01
  9.1700659180155299E+01
  5.8434378211350605E+01
  5.8320718282016884E+01
  7.6484804095056390E+01
  9.3307897174600441E+01
  5.1539315892449224E+01
  5.0942445565511356E+01
  9.8462101624238755E+01
  8.9511303423143332E+01
  9.6351957602581720E+01
  6.3496250905935746E+01
  8.6455850665799957E+01
  5.3658834400960302E+01
  9.4908208916535045E+01
  5.7605733542989583E+01
  9.2425166719867676E+01
  5.5107530029255472E+01
  8.2901223120495089E+01
  6.7066354677852658E+01
  5.7884675557969892E+01
  6.6902891997093406E+01
  8.6404949496433588E+01
  8.9716491050592069E+01
  8.5479711022051262E+01
  8.4282080083724921E+01
  6.8004495691730142E+01
  7.6071798473681923E+01
  8.2781628698948211E+01
  9.3252855560399837E+01
  7.6413541669922850E+01
  7.6101807234721122E+01
  9.3985182592540511E+01
  7.5711035718351980E+01
  8.8273629994429925E+01
  6.3332736247523165E+01
  6.1718524361923322E+01
  9.3850039940477046E+01
  7.0549341733676059E+01
  7.9154260830770312E+01
  5.5945016103283542E+01
  6.1212899168004725E+01
  8.8786309499260710E+01
  5.5847827869970686E+01
  9.3465874372940263E+01
  6.4348772584539603E+01
  7.5627779727272880E+01
  9.7922844524186445E+01
  6.4959014413786591E+01
  8.5016329910779746E+01
  5.2073756361796477E+01
  6.9795773098352768E+01
  7.6772971599322446E+01
  6.5697585135333426E+01
  9.9109994345382844E+01
  7.3660158678815591E+01
  8.6564093824642242E+01
  9.3594330818176161E+01
  7.6368676022082099E+01
  8.4008058681534919E+01
  6.2748505623469903E+01
  8.1238234304412245E+01
  7.6017164327680817E+01
  8.2777621184918814E+01
  6.2026747157350606E+01
  6.5622294228429368E+01
  9.0902682979463890E+01
  5.9147160421165893E+01
  8.6987973984985132E+01
  6.1589917066860629E+01
  6.3022378252750634E+01
  8.6609421398115273E+01
  9.3143166870946970E+01
  6.8745673324672765E+01
  9.8043823339582957E+01
  5.9090661924909071E+01
  9.0898855407435093E+01
  5.1959090882927448E+01
  7.7948048478291767E+01
  6.5278915958567097E+01
  6.5325404664320175E+01
  8.1472608190513824E+01
  8.1737989288533853E+01
  5.6425449726626006E+01
  9.6088209918441081E+01
  5.3935677591310480E+01
  9.2221934312528418E+01
  9.1597986703794746E+01
  9.3595244180885331E+01
  6.6163810800041091E+01
  7.7114352161269551E+01
  7.7465204512931905E+01
  8.6566732380268235E+01
  8.6735543269321326E+01
  9.0166551163371849E+01
  8.2882326200517895E+01
  8.3842083333197337E+01
  6.1503508642525958E+01
  6.6132727054443890E+01