# vtk DataFile Version 3.0
VTK datafile generated by Trushant
ASCII
DATASET UNSTRUCTURED_GRID
POINTS 16900 double
  0.0000000000000000E+00	  0.0000000000000000E+00	  0.0000000000000000E+00
  0.0000000000000000E+00	  7.7519379844961239E-03	  0.0000000000000000E+00
  0.0000000000000000E+00	  1.5503875968992248E-02	  0.0000000000000000E+00
  0.0000000000000000E+00	  2.3255813953488372E-02	  0.0000000000000000E+00
  0.0000000000000000E+00	  3.1007751937984496E-02	  0.0000000000000000E+00
  0.0000000000000000E+00	  3.8759689922480620E-02	  0.0000000000000000E+00
  0.0000000000000000E+00	  4.6511627906976744E-02	  0.0000000000000000E+00
  0.0000000000000000E+00	  5.4263565891472867E-02	  0.0000000000000000E+00
  0.0000000000000000E+00	  6.2015503875968991E-02	  0.0000000000000000E+00
  0.0000000000000000E+00	  6.9767441860465115E-02	  0.0000000000000000E+00
  0.0000000000000000E+00	  7.7519379844961239E-02	  0.0000000000000000E+00
  0.0000000000000000E+00	  8.5271317829457363E-02	  0.0000000000000000E+00
  0.0000000000000000E+00	  9.3023255813953487E-02	  0.0000000000000000E+00
  0.0000000000000000E+00	  1.0077519379844961E-01	  0.0000000000000000E+00
  0.0000000000000000E+00	  1.0852713178294573E-01	  0.0000000000000000E+00
  0.0000000000000000E+00	  1.1627906976744186E-01	  0.0000000000000000E+00
  0.0000000000000000E+00	  1.2403100775193798E-01	  0.0000000000000000E+00
  0.0000000000000000E+00	  1.3178294573643412E-01	  0.0000000000000000E+00
  0.0000000000000000E+00	  1.3953488372093023E-01	  0.0000000000000000E+00
  0.0000000000000000E+00	  1.4728682170542634E-01	  0.0000000000000000E+00
  0.0000000000000000E+00	  1.5503875968992248E-01	  0.0000000000000000E+00
  0.0000000000000000E+00	  1.6279069767441862E-01	  0.0000000000000000E+00
  0.0000000000000000E+00	  1.7054263565891473E-01	  0.0000000000000000E+00
  0.0000000000000000E+00	  1.7829457364341084E-01	  0.0000000000000000E+00
  0.0000000000000000E+00	  1.8604651162790697E-01	  0.0000000000000000E+00
  0.0000000000000000E+00	  1.9379844961240311E-01	  0.0000000000000000E+00
  0.0000000000000000E+00	  2.0155038759689922E-01	  0.0000000000000000E+00
  0.0000000000000000E+00	  2.0930232558139533E-01	  0.0000000000000000E+00
  0.0000000000000000E+00	  2.1705426356589147E-01	  0.0000000000000000E+00
  0.0000000000000000E+00	  2.2480620155038761E-01	  0.0000000000000000E+00
  0.0000000000000000E+00	  2.3255813953488372E-01	  0.0000000000000000E+00
  0.0000000000000000E+00	  2.4031007751937983E-01	  0.0000000000000000E+00
  0.0000000000000000E+00	  2.4806201550387597E-01	  0.0000000000000000E+00
  0.0000000000000000E+00	  2.5581395348837210E-01	  0.0000000000000000E+00
  0.0000000000000000E+00	  2.6356589147286824E-01	  0.0000000000000000E+00
  0.0000000000000000E+00	  2.7131782945736432E-01	  0.0000000000000000E+00
  0.0000000000000000E+00	  2.7906976744186046E-01	  0.0000000000000000E+00
  0.0000000000000000E+00	  2.8682170542635660E-01	  0.0000000000000000E+00
  0.0000000000000000E+00	  2.9457364341085268E-01	  0.0000000000000000E+00
  0.0000000000000000E+00	  3.0232558139534882E-01	  0.0000000000000000E+00
  0.0000000000000000E+00	  3.1007751937984496E-01	  0.0000000000000000E+00
  0.0000000000000000E+00	  3.1782945736434109E-01	  0.0000000000000000E+00
  0.0000000000000000E+00	  3.2558139534883723E-01	  0.0000000000000000E+00
  0.0000000000000000E+00	  3.3333333333333331E-01	  0.0000000000000000E+00
  0.0000000000000000E+00	  3.4108527131782945E-01	  0.0000000000000000E+00
  0.0000000000000000E+00	  3.4883720930232559E-01	  0.0000000000000000E+00
  0.0000000000000000E+00	  3.5658914728682167E-01	  0.0000000000000000E+00
  0.0000000000000000E+00	  3.6434108527131781E-01	  0.0000000000000000E+00
  0.0000000000000000E+00	  3.7209302325581395E-01	  0.0000000000000000E+00
  0.0000000000000000E+00	  3.7984496124031009E-01	  0.0000000000000000E+00
  0.0000000000000000E+00	  3.8759689922480622E-01	  0.0000000000000000E+00
  0.0000000000000000E+00	  3.9534883720930231E-01	  0.0000000000000000E+00
  0.0000000000000000E+00	  4.0310077519379844E-01	  0.0000000000000000E+00
  0.0000000000000000E+00	  4.1085271317829458E-01	  0.0000000000000000E+00
  0.0000000000000000E+00	  4.1860465116279066E-01	  0.0000000000000000E+00
  0.0000000000000000E+00	  4.2635658914728680E-01	  0.0000000000000000E+00
  0.0000000000000000E+00	  4.3410852713178294E-01	  0.0000000000000000E+00
  0.0000000000000000E+00	  4.4186046511627908E-01	  0.0000000000000000E+00
  0.0000000000000000E+00	  4.4961240310077522E-01	  0.0000000000000000E+00
  0.0000000000000000E+00	  4.5736434108527130E-01	  0.0000000000000000E+00
  0.0000000000000000E+00	  4.6511627906976744E-01	  0.0000000000000000E+00
  0.0000000000000000E+00	  4.7286821705426357E-01	  0.0000000000000000E+00
  0.0000000000000000E+00	  4.8062015503875966E-01	  0.0000000000000000E+00
  0.0000000000000000E+00	  4.8837209302325579E-01	  0.0000000000000000E+00
  0.0000000000000000E+00	  4.9612403100775193E-01	  0.0000000000000000E+00
  0.0000000000000000E+00	  5.0387596899224807E-01	  0.0000000000000000E+00
  0.0000000000000000E+00	  5.1162790697674421E-01	  0.0000000000000000E+00
  0.0000000000000000E+00	  5.1937984496124034E-01	  0.0000000000000000E+00
  0.0000000000000000E+00	  5.2713178294573648E-01	  0.0000000000000000E+00
  0.0000000000000000E+00	  5.3488372093023251E-01	  0.0000000000000000E+00
  0.0000000000000000E+00	  5.4263565891472865E-01	  0.0000000000000000E+00
  0.0000000000000000E+00	  5.5038759689922478E-01	  0.0000000000000000E+00
  0.0000000000000000E+00	  5.5813953488372092E-01	  0.0000000000000000E+00
  0.0000000000000000E+00	  5.6589147286821706E-01	  0.0000000000000000E+00
  0.0000000000000000E+00	  5.7364341085271320E-01	  0.0000000000000000E+00
  0.0000000000000000E+00	  5.8139534883720934E-01	  0.0000000000000000E+00
  0.0000000000000000E+00	  5.8914728682170536E-01	  0.0000000000000000E+00
  0.0000000000000000E+00	  5.9689922480620150E-01	  0.0000000000000000E+00
  0.0000000000000000E+00	  6.0465116279069764E-01	  0.0000000000000000E+00
  0.0000000000000000E+00	  6.1240310077519378E-01	  0.0000000000000000E+00
  0.0000000000000000E+00	  6.2015503875968991E-01	  0.0000000000000000E+00
  0.0000000000000000E+00	  6.2790697674418605E-01	  0.0000000000000000E+00
  0.0000000000000000E+00	  6.3565891472868219E-01	  0.0000000000000000E+00
  0.0000000000000000E+00	  6.4341085271317833E-01	  0.0000000000000000E+00
  0.0000000000000000E+00	  6.5116279069767447E-01	  0.0000000000000000E+00
  0.0000000000000000E+00	  6.5891472868217049E-01	  0.0000000000000000E+00
  0.0000000000000000E+00	  6.6666666666666663E-01	  0.0000000000000000E+00
  0.0000000000000000E+00	  6.7441860465116277E-01	  0.0000000000000000E+00
  0.0000000000000000E+00	  6.8217054263565891E-01	  0.0000000000000000E+00
  0.0000000000000000E+00	  6.8992248062015504E-01	  0.0000000000000000E+00
  0.0000000000000000E+00	  6.9767441860465118E-01	  0.0000000000000000E+00
  0.0000000000000000E+00	  7.0542635658914732E-01	  0.0000000000000000E+00
  0.0000000000000000E+00	  7.1317829457364335E-01	  0.0000000000000000E+00
  0.0000000000000000E+00	  7.2093023255813948E-01	  0.0000000000000000E+00
  0.0000000000000000E+00	  7.2868217054263562E-01	  0.0000000000000000E+00
  0.0000000000000000E+00	  7.3643410852713176E-01	  0.0000000000000000E+00
  0.0000000000000000E+00	  7.4418604651162790E-01	  0.0000000000000000E+00
  0.0000000000000000E+00	  7.5193798449612403E-01	  0.0000000000000000E+00
  0.0000000000000000E+00	  7.5968992248062017E-01	  0.0000000000000000E+00
  0.0000000000000000E+00	  7.6744186046511631E-01	  0.0000000000000000E+00
  0.0000000000000000E+00	  7.7519379844961245E-01	  0.0000000000000000E+00
  0.0000000000000000E+00	  7.8294573643410847E-01	  0.0000000000000000E+00
  0.0000000000000000E+00	  7.9069767441860461E-01	  0.0000000000000000E+00
  0.0000000000000000E+00	  7.9844961240310075E-01	  0.0000000000000000E+00
  0.0000000000000000E+00	  8.0620155038759689E-01	  0.0000000000000000E+00
  0.0000000000000000E+00	  8.1395348837209303E-01	  0.0000000000000000E+00
  0.0000000000000000E+00	  8.2170542635658916E-01	  0.0000000000000000E+00
  0.0000000000000000E+00	  8.2945736434108530E-01	  0.0000000000000000E+00
  0.0000000000000000E+00	  8.3720930232558133E-01	  0.0000000000000000E+00
  0.0000000000000000E+00	  8.4496124031007747E-01	  0.0000000000000000E+00
  0.0000000000000000E+00	  8.5271317829457360E-01	  0.0000000000000000E+00
  0.0000000000000000E+00	  8.6046511627906974E-01	  0.0000000000000000E+00
  0.0000000000000000E+00	  8.6821705426356588E-01	  0.0000000000000000E+00
  0.0000000000000000E+00	  8.7596899224806202E-01	  0.0000000000000000E+00
  0.0000000000000000E+00	  8.8372093023255816E-01	  0.0000000000000000E+00
  0.0000000000000000E+00	  8.9147286821705429E-01	  0.0000000000000000E+00
  0.0000000000000000E+00	  8.9922480620155043E-01	  0.0000000000000000E+00
  0.0000000000000000E+00	  9.0697674418604646E-01	  0.0000000000000000E+00
  0.0000000000000000E+00	  9.1472868217054260E-01	  0.0000000000000000E+00
  0.0000000000000000E+00	  9.2248062015503873E-01	  0.0000000000000000E+00
  0.0000000000000000E+00	  9.3023255813953487E-01	  0.0000000000000000E+00
  0.0000000000000000E+00	  9.3798449612403101E-01	  0.0000000000000000E+00
  0.0000000000000000E+00	  9.4573643410852715E-01	  0.0000000000000000E+00
  0.0000000000000000E+00	  9.5348837209302328E-01	  0.0000000000000000E+00
  0.0000000000000000E+00	  9.6124031007751931E-01	  0.0000000000000000E+00
  0.0000000000000000E+00	  9.6899224806201545E-01	  0.0000000000000000E+00
  0.0000000000000000E+00	  9.7674418604651159E-01	  0.0000000000000000E+00
  0.0000000000000000E+00	  9.8449612403100772E-01	  0.0000000000000000E+00
  0.0000000000000000E+00	  9.9224806201550386E-01	  0.0000000000000000E+00
  0.0000000000000000E+00	  1.0000000000000000E+00	  0.0000000000000000E+00
  7.7519379844961239E-03	  0.0000000000000000E+00	  0.0000000000000000E+00
[...]
CELL_DATA 16641
SCALARS Vorticity double
LOOKUP_TABLE default
 -6.3327072798581585E-04
 -2.1163276083067803E-03
 -4.0835596594331093E-03
 -6.1153597003284479E-03
 -7.7253231229967578E-03
 -8.5362496680423203E-03
 -8.2863570407731481E-03
 -6.8024721158177143E-03
 -3.9739380826033380E-03
  2.6687745896701863E-04
  5.9581394129333528E-03
  1.3117800285427118E-02
  2.1749916537680818E-02
  3.1848982997310142E-02
  4.3402925001668889E-02
  5.6395172122392319E-02
  7.0806096097799281E-02
  8.6614003719608562E-02
  1.0379581518496114E-01
  1.2232751842722024E-01
  1.4218446299797183E-01
  1.6334153866816209E-01
  1.8577327117633749E-01
  2.0945385862656071E-01
  2.3435716571827619E-01
  2.6045668847251929E-01
  2.8772549886298932E-01
  3.1613617639782043E-01
  3.4566073197345398E-01
  3.7627052805754679E-01
  4.0793619832726130E-01
  4.4062756920253077E-01
  4.7431358520602429E-01
  5.0896223970536347E-01
  5.4454051231403378E-01
  5.8101431401985715E-01
  6.1834844095489327E-01
  6.5650653760404165E-01
  6.9545107016085050E-01
  7.3514331067012584E-01
  7.7554333254193886E-01
  8.1661001797608423E-01
  8.5830107779666964E-01
  9.0057308416095516E-01
  9.4338151657311275E-01
  9.8668082160119797E-01
  1.0304244866636598E+00
  1.0745651282199975E+00
  1.1190545946687616E+00
  1.1638440842254918E+00
  1.2088842780240086E+00
  1.2541254886577482E+00
  1.2995178243546996E+00
  1.3450113689614209E+00
  1.3905563779002530E+00
  1.4361034902611090E+00
  1.4816039571972996E+00
  1.5270098868161417E+00
  1.5722745057923717E+00
  1.6173524379886346E+00
  1.6622000004459807E+00
  1.7067755172120744E+00
  1.7510396516100020E+00
  1.7949557577207631E+00
  1.8384902520630881E+00
  1.8816130067109582E+00
  1.9242977653988931E+00
  1.9665225845350618E+00
  2.0082703014812582E+00
  2.0495290329762934E+00
  2.0902927071865101E+00
  2.1305616335765367E+00
  2.1703431156195139E+00
  2.2096521123255490E+00
  2.2485119556793114E+00
  2.2869551323647350E+00
  2.3250241396426863E+00
  2.3627724269662846E+00
  2.4002654369038594E+00
  2.4375817612327224E+00
  2.4748144307174482E+00
  2.5120723601526493E+00
  2.5494819738025472E+00
  2.5871890404926314E+00
  2.6253607524053408E+00
  2.6641880872282599E+00
  2.7038884998561219E+00
  2.7447089975521743E+00
  2.7869296615763206E+00
  2.8308676891004012E+00
  2.8768820421575905E+00
  2.9253788059355412E+00
  2.9768173776045943E+00
  3.0317176299745050E+00
  3.0906682227941524E+00
  3.1543362700550106E+00
  3.2234786163995510E+00
  3.2989550326199084E+00
  3.3817437133004504E+00
  3.4729595544850773E+00
  3.5738758135838125E+00
  3.6859499184241105E+00
  3.8108544127169091E+00
  3.9505143230499384E+00
  4.1071526391607369E+00
  4.2833461601014635E+00
  4.4820947405476055E+00
  4.7069080725487140E+00
  4.9619157063577743E+00
  5.2520082741812635E+00
  5.5830211783479040E+00
  5.9619768795552996E+00
  6.3974092234692641E+00
  6.8998043366281507E+00
  7.4822096946557410E+00
  8.1610895155815548E+00
  8.9575460527235862E+00
  9.8990900459790243E+00
  1.1022235705561448E+01
  1.2376303029573247E+01
  1.4028823753209556E+01
  1.6072363225511641E+01
  1.8629377589290236E+01
  2.1838305600807672E+01
  2.5752053422897600E+01
  2.9882172752402901E+01
  3.1353798150399836E+01
  1.7495784133227804E+01
 -6.3806998862119478E+01
 -2.1148601891164648E-03
 -1.9980482075797009E-03
 -1.8813143313564779E-03
 -1.7018979713919818E-03
 -1.2148263562236181E-03
 -1.5990345772185665E-04
  1.6820157930613235E-03
  4.4789408451640688E-03
  8.3532792968223427E-03
  1.3390933233026902E-02
  1.9649866037158858E-02
  2.7167084967197237E-02
  3.5964019827019356E-02
  4.6050565077236968E-02
  5.7428083710413559E-02
  7.0091627612890436E-02
  8.4031573375979593E-02
  9.9234823461934629E-02
  1.1568568405696257E-01
  1.3336650194891678E-01
  1.5225812137667671E-01
  1.7234020612072370E-01
  1.9359146062014015E-01
  2.1598977546709178E-01
  2.3951231641041770E-01
  2.6413557139194621E-01
  2.8983536670834520E-01
  3.1658686082478860E-01
  3.4436452243813781E-01
  3.7314209793217284E-01
  4.0289257226534303E-01
  4.3358812649403472E-01
  4.6520009449594768E-01
  4.9769892097003648E-01
  5.3105412241505989E-01
  5.6523425250054760E-01
  6.0020687302111420E-01
  6.3593853145168378E-01
  6.7239474598525140E-01
  7.0953999882707652E-01
  7.4733773843262297E-01
  7.8575039130572255E-01
  8.2473938391429114E-01
  8.6426517523035351E-01
  9.0428730035689797E-01
  9.4476442566454510E-01
  9.8565441582507551E-01
  1.0269144130958940E+00
  1.0685009291791487E+00
  1.1103699499515811E+00
  1.1524770533364916E+00
  1.1947775405680729E+00
  1.2372265810815082E+00
  1.2797793712507930E+00
  1.3223913071912743E+00
  1.3650181718470300E+00
  1.4076163365959429E+00
  1.4501429776296781E+00
  1.4925563074037675E+00
  1.5348158215070862E+00
  1.5768825613728310E+00
  1.6187193933475574E+00
  1.6602913047543044E+00
  1.7015657177338606E+00
  1.7425128218289569E+00
  1.7831059264940445E+00
  1.8233218349734484E+00
  1.8631412412985815E+00
  1.9025491525169278E+00
  1.9415353386886085E+00
  1.9800948136783718E+00
  2.0182283503406784E+00
  2.0559430343529854E+00
  2.0932528617086090E+00
  2.1301793857481104E+00
  2.1667524206013260E+00
  2.2030108090468783E+00
  2.2390032640905631E+00
  2.2747892950392208E+00
  2.3104402305262006E+00
  2.3460403528558240E+00
  2.3816881602087685E+00
  2.4174977757249487E+00
  2.4536005252984947E+00
  2.4901467091319422E+00
  2.5273075957651763E+00
  2.5652776714929977E+00
  2.6042771829041196E+00
  2.6445550158256999E+00
  2.6863919603808859E+00
  2.7301044193380228E+00
  2.7760486256724302E+00
  2.8246254455604456E+00
  2.8762858552478279E+00
  2.9315371948544096E+00
  2.9909503198073142E+00
  3.0551677920299092E+00
  3.1249132792791809E+00
  3.2010023634418632E+00
  3.2843549988588503E+00
  3.3760099119831257E+00
  3.4771412965371438E+00
  3.5890782370096983E+00
  3.7133273914646745E+00
  3.8515995859934948E+00
  4.0058411207613895E+00
  4.1782707618201300E+00
  4.3714235871869347E+00
  4.5882030481392695E+00
  4.8319427420265777E+00
  5.1064793461241216E+00
  5.4162376623252317E+00
  5.7663271927362993E+00
  6.1626458773382957E+00
  6.6119779303991741E+00
  7.1220533058312654E+00
  7.7014931393363959E+00
  8.3594682837149907E+00
  9.1046743425520376E+00
  9.9426974603129992E+00
  1.0869554879253014E+01
  1.1855952105517902E+01
  1.2808429028647538E+01
  1.3471502937080166E+01
  1.3176140417168982E+01
  1.0185673651853612E+01
  2.4863906985210935E-02
 -2.8301634760100111E+01
 -9.6687561785872958E+01
 -4.0757658016113852E-03
 -1.8797048366352019E-03
  2.5827199349135637E-04
  2.4039525759214264E-03
  4.7278358437822573E-03
  7.4293817617177476E-03
  1.0695203183716610E-02
  1.4682652611136351E-02
  1.9516845255427753E-02
  2.5293445792828363E-02
  3.2083295490212708E-02
  3.9937139159526375E-02
  4.8889797132612288E-02
  5.8963615813337339E-02
  7.0171228099461289E-02
  8.2517721242462580E-02
  9.6002320619329007E-02
  1.1061968791661200E-01
  1.2636091625100085E-01
  1.4321428875296235E-01
  1.6116585320352692E-01
  1.8019985389217583E-01
  2.0029905278380850E-01
  2.2144496497875327E-01
  2.4361802793677265E-01
  2.6679771967353172E-01
  2.9096263784604259E-01
  3.1609054910007867E-01
  3.4215841608466813E-01
  3.6914240801339360E-01
  3.9701789946729044E-01
  4.2575946121151120E-01
  4.5534084607778275E-01
  4.8573497240114100E-01
  5.1691390705720242E-01
  5.4884884979813631E-01
  5.8151012031051330E-01
  6.1486714920003427E-01
  6.4888847393415461E-01
  6.8354174063394646E-01
  7.1879371249354240E-01
  7.5461028551323173E-01
  7.9095651215608476E-01
  8.2779663347433352E-01
  8.6509412019790288E-01
  9.0281172323143066E-01
  9.4091153396635518E-01
  9.7935505478014251E-01
  1.0181032800648437E+00
  1.0571167881015360E+00
  1.0963558440758319E+00
  1.1357805145126463E+00
  1.1753507933962717E+00
  1.2150267402351043E+00
  1.2547686303299181E+00
  1.2945371175113776E+00
  1.3342934096276837E+00
  1.3739994570882510E+00
  1.4136181548055877E+00
  1.4531135579269088E+00
  1.4924511118113131E+00
  1.5315978967897745E+00
  1.5705228883460858E+00
  1.6091972334798372E+00
  1.6475945441603739E+00
  1.6856912089565363E+00
  1.7234667241342723E+00
  1.7609040457565797E+00
  1.7979899646017283E+00
  1.8347155060405862E+00
  1.8710763573868732E+00
  1.9070733256602337E+00
  1.9427128291864579E+00
  1.9780074270077002E+00
  2.0129763906940101E+00
  2.0476463238421019E+00
  2.0820518353244228E+00
  2.1162362732176421E+00
  2.1502525273011526E+00
  2.1841639090792682E+00
  2.2180451194513457E+00
  2.2519833154373168E+00
  2.2860792887662105E+00
  2.3204487706549273E+00
  2.3552238787445474E+00
  2.3905547239195095E+00
  2.4266111966052049E+00
  2.4635849541101598E+00
  2.5016916326310987E+00
  2.5411733096428217E+00
  2.5823012445047775E+00
  2.6253789271647392E+00
  2.6707454667259660E+00
  2.7187793532165885E+00
  2.7699026269311648E+00
  2.8245854898596523E+00
  2.8833513924508054E+00
  2.9467826254617884E+00
  3.0155264396579673E+00
  3.0903017036629179E+00
  3.1719060891852666E+00
  3.2612237381805764E+00
  3.3592333102493837E+00
  3.4670162178097788E+00
  3.5857647102648573E+00
  3.7167892318914202E+00
  3.8615240939822204E+00
  4.0215298732041198E+00
  4.1984899106312685E+00
  4.3941965553496889E+00
  4.6105198744556803E+00
  4.8493465476045197E+00
  5.1124679581413330E+00
  5.4013810684707879E+00
  5.7169377812121231E+00
  6.0587269265326125E+00
  6.4239753147571328E+00
  6.8055642617103134E+00
  7.1883782814038533E+00
  7.5424235735098115E+00
  7.8095167305820237E+00
  7.8768397837351554E+00
  7.5231025908149247E+00
  6.3070236211675121E+00
  3.3362340510860236E+00
 -3.1927282705651860E+00
 -1.6777924106028184E+01
 -4.3242196078808966E+01
 -8.7713705532718706E+01
 -6.0931728478542313E-03
 -1.7033251099019191E-03
  2.3901540221256410E-03
  6.3316187903446333E-03
  1.0292810178263050E-02
  1.4454258295058550E-02
  1.8986488283867474E-02
  2.4039230888720859E-02
  2.9737598923130236E-02
  3.6182479978732231E-02
  4.3452958387524158E-02
  5.1609437134322277E-02
  6.0696766807763251E-02
  7.0747071600050546E-02
  8.1782167742063414E-02
  9.3815569903949264E-02
  1.0685412424347253E-01
  1.2089932107334651E-01
  1.3594834080056156E-01
  1.5199488173643619E-01
  1.6902981146124846E-01
  1.8704167644682454E-01
  2.0601709834056073E-01
  2.2594107993188775E-01
  2.4679723936036474E-01
  2.6856798749047045E-01
  2.9123466044898488E-01
  3.1477761697434453E-01
  3.3917630835404056E-01
  3.6440932723306751E-01
  3.9045444038703120E-01
  4.1728860960573988E-01
  4.4488800407719725E-01
  4.7322800705826057E-01
  5.0228321913536833E-01
  5.3202745999172840E-01
  5.6243377028644992E-01
  5.9347441500063081E-01
  6.2512088940300026E-01
  6.5734392862351532E-01
  6.9011352168953910E-01
  7.2339893076974460E-01
  7.5716871628076121E-01
  7.9139076843706357E-01
  8.2603234576259987E-01
  8.6106012103091967E-01
  8.9644023505726900E-01
  9.3213835872998074E-01
  9.6811976363852859E-01
  1.0043494016312347E+00
  1.0407919936164380E+00
  1.0774121279068365E+00
  1.1141743683977485E+00
  1.1510433728665184E+00
  1.1879840216825541E+00
  1.2249615572261863E+00
  1.2619417343303245E+00
  1.2988909820826637E+00
  1.3357765773589125E+00
  1.3725668305002945E+00
  1.4092312836026422E+00
  1.4457409219511452E+00
  1.4820683992156420E+00
  1.5181882771178778E+00
  1.5540772803960534E+00
  1.5897145680249900E+00
  1.6250820218041557E+00
  1.6601645536024916E+00
  1.6949504327502043E+00
  1.7294316352952792E+00
  1.7636042170979296E+00
  1.7974687130209430E+00
  1.8310305647888387E+00
  1.8643005804343844E+00
  1.8972954286269439E+00
  1.9300381715820536E+00
  1.9625588406827579E+00
  1.9948950593960835E+00
  2.0270927185356467E+00
  2.0592067093938362E+00
  2.0913017207303057E+00
  2.1234531060385735E+00
  2.1557478278937312E+00
  2.1882854864772932E+00
  2.2211794395349229E+00
  2.2545580209893905E+00
  2.2885658651261704E+00
  2.3233653425891929E+00
  2.3591381132327833E+00
  2.3960867989916439E+00
  2.4344367771118622E+00
  2.4744380900070753E+00
  2.5163674622234060E+00
  2.5605304069095425E+00
  2.6072633929563507E+00
  2.6569360284206076E+00
  2.7099531943190391E+00
  2.7667570329942515E+00
  2.8278286535708963E+00
  2.8936893584988015E+00
  2.9649011123595010E+00
  3.0420658558281457E+00
  3.1258230970375758E+00
  3.2168449637277621E+00
  3.3158275324538460E+00
  3.4234767030627751E+00
  3.5404860581662674E+00
  3.6675028785767854E+00
  3.8050765161073441E+00
  3.9535802238505484E+00
  4.1130925870033419E+00
  4.2832166474609314E+00
  4.4628015218746677E+00
  4.6495089668783072E+00
  4.8391290753620391E+00
  5.0244824667847929E+00
  5.1936273528139720E+00
  5.3268739194713026E+00
  5.3917097512467027E+00
  5.3339941432687130E+00
  5.0623771119018635E+00
  4.4202941742726445E+00
  3.1352743537596748E+00
  7.2822744866734679E-01
 -3.6404989819162865E+00
 -1.1392529065237477E+01
 -2.4684950449350158E+01
 -4.5821931459048628E+01
 -7.3839855057626437E+01
 -7.6815609698718387E-03
 -1.2306404918479153E-03
  4.6740541665621889E-03
  1.0239589971663462E-02
  1.5657512775065652E-02
  2.1108221539081630E-02
  2.6756985341188821E-02
  3.2749809993841687E-02
  3.9211508873971242E-02
  4.6245880103961946E-02
  5.3937245645198105E-02
  6.2352655826367155E-02
  7.1544281591999007E-02
  8.1551718153588304E-02
  9.2404064424081986E-02
  1.0412172843750757E-01
  1.1671795628959086E-01
  1.3020010548872149E-01
  1.4457069312189388E-01
  1.5982825128944653E-01
  1.7596802060026076E-01
  1.9298250925280755E-01
  2.1086194148397533E-01
  2.2959461551273647E-01
  2.4916718779441030E-01
  2.6956489752264207E-01
  2.9077174287507096E-01
  3.1277061846061455E-01
  3.3554342174179902E-01
  3.5907113482228209E-01
  3.8333388685844105E-01
  4.0831100143102272E-01
  4.3398103246099395E-01
  4.6032179164150933E-01
  4.8731036985935733E-01
  5.1492315467301009E-01
  5.4313584558309036E-01
  5.7192346856051546E-01
  6.0126039107631890E-01
  6.3112033869588668E-01
  6.6147641415158376E-01
  6.9230111968543895E-01
  7.2356638335281409E-01
  7.5524358989493268E-01
  7.8730361671961635E-01
  8.1971687547312999E-01
  8.5245335963967750E-01
  8.8548269856732864E-01
  9.1877421828878536E-01
  9.5229700948160190E-01
  9.8602000289458780E-01
  1.0199120525547911E+00
  1.0539420270624316E+00
  1.0880789092794003E+00
  1.1222919047204936E+00
  1.1565505589656631E+00
  1.1908248844264808E+00
  1.2250854968211660E+00
  1.2593037617403711E+00
  1.2934519517209979E+00
  1.3275034142882087E+00
  1.3614327514771503E+00
  1.3952160114063210E+00
  1.4288308925446476E+00
  1.4622569613947334E+00
  1.4954758844058886E+00
  1.5284716750327831E+00
  1.5612309569689837E+00
  1.5937432447090003E+00
  1.6260012427271848E+00
  1.6580011647056045E+00
  1.6897430743938882E+00
  1.7212312498389839E+00
  1.7524745728774409E+00
  1.7834869459312646E+00
  1.8142877382823990E+00
  1.8449022641096238E+00
  1.8753622946407522E+00
  1.9057066067837283E+00
  1.9359815705282961E+00
  1.9662417772240026E+00
  1.9965507105001161E+00
  2.0269814610470793E+00
  2.0576174856611544E+00
  2.0885534097793617E+00
  2.1198958710918721E+00
  2.1517643995737643E+00
  2.1842923262466063E+00
  2.2176277089277008E+00
  2.2519342578438026E+00
  2.2873922368722424E+00
  2.3241993067887283E+00
  2.3625712645287358E+00
  2.4027426161365657E+00
  2.4449668994563818E+00
  2.4895166438840035E+00
  2.5366828160991450E+00
  2.5867735490493993E+00
  2.6401118814600135E+00
  2.6970321394699459E+00
  2.7578744600067004E+00
  2.8229767716043308E+00
  2.8926632894072086E+00
  2.9672282124272593E+00
  3.0469127802384675E+00
  3.1318730727914326E+00
  3.2221347963126874E+00
  3.3175295948945869E+00
  3.4176048510054287E+00
  3.5214949893486773E+00
  3.6277361628494860E+00
  3.7339965306139247E+00
  3.8366788789463597E+00
  3.9303272559826001E+00
  4.0067280029472574E+00
  4.0535266460272501E+00
  4.0520656448993142E+00
  3.9739493692473924E+00
  3.7755028950938638E+00
  3.3887147932835289E+00
  2.7063062510415636E+00
  1.5571352161442777E+00
 -3.3355068560020240E-01
 -3.4046749469839517E+00
 -8.3377993459841093E+00
 -1.6110440286320497E+01
 -2.7853416996872678E+01
 -4.4040388039098275E+01
 -6.2104054517114456E+01
 -8.4710382280376306E-03
 -2.1175998283458472E-04
  7.2971842222681292E-03
  1.4295293737245468E-02
  2.0989511889157323E-02
  2.7564101698760810E-02
  3.4183262424913104E-02
  4.0991290498807113E-02
  4.8112633870746477E-02
  5.5652589464557548E-02
  6.3698648401729327E-02
  7.2322254964921909E-02
  8.1580734128842952E-02
  9.1519205479556207E-02
  1.0217237148276391E-01
  1.1356612318562989E-01
  1.2571894349182128E-01
  1.3864311047612896E-01
  1.5234571522755624E-01
  1.6682951414539510E-01
  1.8209363712536483E-01
  1.9813417241587808E-01
  2.1494464718789319E-01
  2.3251642069120523E-01
  2.5083900462851483E-01
  2.6990032325650126E-01
  2.8968692380851785E-01
  3.1018414615634093E-01
  3.3137625918699881E-01
  3.5324657014771588E-01
  3.7577751218333666E-01
  3.9895071443056235E-01
  4.2274705831722331E-01
  4.4714672312017856E-01
  4.7212922334256074E-01
  4.9767344006298342E-01
  5.2375764807164404E-01
  5.5035954032887668E-01
  5.7745625105061182E-01
  6.0502437853401203E-01
  6.3304000867840771E-01
  6.6147874002588158E-01
  6.9031571103778633E-01
  7.1952563023432670E-01
  7.4908280975101027E-01
  7.7896120280568304E-01
  8.0913444552106373E-01
  8.3957590350844558E-01
  8.7025872358728007E-01
  9.0115589099164739E-01
  9.3224029239732309E-01
  9.6348478509168534E-01
  9.9486227260257309E-01
  1.0263457871011044E+00
  1.0579085788971625E+00
  1.0895242133546212E+00
  1.1211666755663519E+00
  1.1528104831466170E+00
  1.1844308075206214E+00
  1.2160036041177884E+00
  1.2475057519067696E+00
  1.2789152027462209E+00
  1.3102111410658996E+00
  1.3413741544374027E+00
  1.3723864156424013E+00
  1.4032318768979419E+00
  1.4338964769521925E+00
  1.4643683618184835E+00
  1.4946381199685688E+00
  1.5246990328549348E+00
  1.5545473416729445E+00
  1.5841825313016100E+00
  1.6136076323703517E+00
  1.6428295423796424E+00
  1.6718593667450998E+00
  1.7007127805231959E+00
  1.7294104113944788E+00
  1.7579782442042846E+00
  1.7864480469624187E+00
  1.8148578176460055E+00
  1.8432522503874988E+00
  1.8716832186049370E+00
  1.9002102712707312E+00
  1.9289011367263089E+00
  1.9578322261158967E+00
  1.9870891254850438E+00
  2.0167670616789266E+00
  2.0469713221392078E+00
  2.0778176022234232E+00
  2.1094322453514738E+00
  2.1419523305888304E+00
  2.1755255485057683E+00
  2.2103097883759664E+00
  2.2464723367480226E+00
  2.2841885574500362E+00
  2.3236398838601233E+00
  2.3650109026066239E+00
  2.4084852393081220E+00
  2.4542398652752566E+00
  2.5024373203963606E+00
  2.5532151789869895E+00
  2.6066718537696030E+00
  2.6628475114245904E+00
  2.7216984215556002E+00
  2.7830624201719738E+00
  2.8466122496716122E+00
  2.9117922040677087E+00
  2.9777315522010959E+00
  3.0431253088310943E+00
  3.1060685650842590E+00
  3.1638239690186825E+00
  3.2124917723718158E+00
  3.2465360456771784E+00
  3.2580958244177478E+00
  3.2359705734361213E+00
  3.1641065247243070E+00
  3.0193099681526885E+00
  2.7677538445781300E+00
  2.3595952772548836E+00
  1.7206536992404511E+00
  7.3961909219752253E-01
 -7.5115443500021561E-01
 -3.0028103652886640E+00
 -6.3830234400528392E+00
 -1.1399534982795460E+01
 -1.8661761963832824E+01
 -2.8646303664837532E+01
 -4.1007468082897105E+01
 -5.3151186248300640E+01
 -8.2145357852817010E-03
  1.5575149246840959E-03
  1.0431352687810376E-02
  1.8655167347293451E-02
  2.6441395745819111E-02
  3.3975569076766882E-02
  4.1420718878292399E-02
  4.8919475623147614E-02
  5.6595348308487912E-02
  6.4553928995700921E-02
  7.2884270593260844E-02
  8.1660439197329113E-02
  9.0943154307829385E-02
  1.0078142159568988E-01
  1.1121408454498630E-01
  1.2227124875835164E-01
  1.3397555617341236E-01
  1.4634330335234655E-01
  1.5938540885969860E-01
  1.7310824093810881E-01
  1.8751431965538559E-01
  2.0260290858231575E-01
  2.1837051070339206E-01